M 0.00000 0 (200.00, 10.00, 0.00), (200.00, 400.00), 40.00
M 0.00000 1 (200.00, 10.00, 0.00), (200.00, 400.00), 50.00
M 0.00000 2 (200.00, 10.00, 0.00), (200.00, 400.00), 60.00
s 1.000000000 _3_ AGT  --- 0 tcp 40 [0 0 0 0] ------- [3:0 0:0 32 0] [0 0] 0 0
r 1.000000000 _3_ RTR  --- 0 tcp 40 [0 0 0 0] ------- [3:0 0:0 32 0] [0 0] 0 0
s 1.000000000 _3_ RTR  --- 0 AODV 48 [0 0 0 0] ------- [3:255 -1:255 30 0] [0x2 1 1 [0 0] [3 4]] (REQUEST)
s 3.000000000 _3_ RTR  --- 0 AODV 48 [0 0 0 0] ------- [3:255 -1:255 30 0] [0x2 1 2 [0 0] [3 6]] (REQUEST)
s 4.000000000 _3_ AGT  --- 1 tcp 40 [0 0 0 0] ------- [3:0 0:0 32 0] [0 0] 0 0
r 4.000000000 _3_ RTR  --- 1 tcp 40 [0 0 0 0] ------- [3:0 0:0 32 0] [0 0] 0 0
M 7.00000 1 (200.00, 360.00, 0.00), (300.00, 600.00), 50.00
s 7.000000000 _3_ RTR  --- 0 AODV 48 [0 0 0 0] ------- [3:255 -1:255 30 0] [0x2 1 3 [0 0] [3 8]] (REQUEST)
r 7.000620000 _2_ RTR  --- 0 AODV 48 [0 ffffffff 3 800] ------- [3:255 -1:255 30 0] [0x2 1 3 [0 0] [3 8]] (REQUEST)
r 7.000620133 _1_ RTR  --- 0 AODV 48 [0 ffffffff 3 800] ------- [3:255 -1:255 30 0] [0x2 1 3 [0 0] [3 8]] (REQUEST)
s 7.002966151 _1_ RTR  --- 0 AODV 48 [0 ffffffff 3 800] ------- [1:255 -1:255 29 0] [0x2 2 3 [0 0] [3 8]] (REQUEST)
r 7.003946284 _3_ RTR  --- 0 AODV 48 [0 ffffffff 1 800] ------- [1:255 -1:255 29 0] [0x2 2 3 [0 0] [3 8]] (REQUEST)
r 7.003946284 _2_ RTR  --- 0 AODV 48 [0 ffffffff 1 800] ------- [1:255 -1:255 29 0] [0x2 2 3 [0 0] [3 8]] (REQUEST)
r 7.003946384 _0_ RTR  --- 0 AODV 48 [0 ffffffff 1 800] ------- [1:255 -1:255 29 0] [0x2 2 3 [0 0] [3 8]] (REQUEST)
s 7.003946384 _0_ RTR  --- 0 AODV 44 [0 0 0 0] ------- [0:255 3:255 30 1] [0x4 1 [0 4] 10.000000] (REPLY)
r 7.007336837 _1_ RTR  --- 0 AODV 44 [102 1 0 800] ------- [0:255 3:255 30 1] [0x4 1 [0 4] 10.000000] (REPLY)
f 7.007336837 _1_ RTR  --- 0 AODV 44 [102 1 0 800] ------- [0:255 3:255 29 3] [0x4 2 [0 4] 10.000000] (REPLY)
s 7.008784761 _2_ RTR  --- 0 AODV 48 [0 ffffffff 3 800] ------- [2:255 -1:255 29 0] [0x2 2 3 [0 0] [3 8]] (REQUEST)
r 7.011014578 _3_ RTR  --- 0 AODV 44 [102 3 1 800] ------- [0:255 3:255 29 3] [0x4 2 [0 4] 10.000000] (REPLY)
s 7.011014578 _3_ RTR  --- 0 tcp 40 [0 0 0 0] ------- [3:0 0:0 30 1] [0 0] 0 0
r 7.011882587 _3_ RTR  --- 0 AODV 48 [0 ffffffff 2 800] ------- [2:255 -1:255 29 0] [0x2 2 3 [0 0] [3 8]] (REQUEST)
r 7.011882719 _1_ RTR  --- 0 AODV 48 [0 ffffffff 2 800] ------- [2:255 -1:255 29 0] [0x2 2 3 [0 0] [3 8]] (REQUEST)
r 7.012898800 _1_ RTR  --- 0 tcp 40 [102 1 3 800] ------- [3:0 0:0 30 1] [0 0] 1 0
f 7.012898800 _1_ RTR  --- 0 tcp 40 [102 1 3 800] ------- [3:0 0:0 29 0] [0 0] 1 0
r 7.014433319 _0_ AGT  --- 0 tcp 40 [102 0 1 800] ------- [3:0 0:0 29 0] [0 0] 2 0
s 7.014433319 _0_ AGT  --- 2 ack 40 [0 0 0 0] ------- [0:0 3:0 32 0] [0 0] 0 0
r 7.014433319 _0_ RTR  --- 2 ack 40 [0 0 0 0] ------- [0:0 3:0 32 0] [0 0] 0 0
s 7.014433319 _0_ RTR  --- 2 ack 40 [0 0 0 0] ------- [0:0 3:0 30 1] [0 0] 0 0
r 7.016107838 _1_ RTR  --- 2 ack 40 [102 1 0 800] ------- [0:0 3:0 30 1] [0 0] 1 0
f 7.016107838 _1_ RTR  --- 2 ack 40 [102 1 0 800] ------- [0:0 3:0 29 3] [0 0] 1 0
r 7.017742048 _3_ AGT  --- 2 ack 40 [102 3 1 800] ------- [0:0 3:0 29 3] [0 0] 2 0
s 7.017742048 _3_ AGT  --- 3 tcp 1040 [0 0 0 0] ------- [3:0 0:0 32 0] [1 0] 0 0
r 7.017742048 _3_ RTR  --- 3 tcp 1040 [0 0 0 0] ------- [3:0 0:0 32 0] [1 0] 0 0
s 7.017742048 _3_ RTR  --- 3 tcp 1040 [0 0 0 0] ------- [3:0 0:0 30 1] [1 0] 0 0
r 7.019603531 _1_ RTR  --- 3 tcp 1040 [102 1 3 800] ------- [3:0 0:0 30 1] [1 0] 1 0
f 7.019603531 _1_ RTR  --- 3 tcp 1040 [102 1 3 800] ------- [3:0 0:0 29 0] [1 0] 1 0
s 7.021014578 _3_ RTR  --- 1 tcp 40 [0 0 0 0] ------- [3:0 0:0 30 1] [0 0] 0 0
r 7.021705323 _0_ AGT  --- 3 tcp 1040 [102 0 1 800] ------- [3:0 0:0 29 0] [1 0] 2 0
s 7.021705323 _0_ AGT  --- 4 ack 40 [0 0 0 0] ------- [0:0 3:0 32 0] [1 0] 0 0
r 7.021705323 _0_ RTR  --- 4 ack 40 [0 0 0 0] ------- [0:0 3:0 32 0] [1 0] 0 0
s 7.021705323 _0_ RTR  --- 4 ack 40 [0 0 0 0] ------- [0:0 3:0 30 1] [1 0] 0 0
r 7.023523842 _1_ RTR  --- 4 ack 40 [102 1 0 800] ------- [0:0 3:0 30 1] [1 0] 1 0
f 7.023523842 _1_ RTR  --- 4 ack 40 [102 1 0 800] ------- [0:0 3:0 29 3] [1 0] 1 0
r 7.024718049 _3_ AGT  --- 4 ack 40 [102 3 1 800] ------- [0:0 3:0 29 3] [1 0] 2 0
s 7.024718049 _3_ AGT  --- 5 tcp 1040 [0 0 0 0] ------- [3:0 0:0 32 0] [2 0] 0 0
r 7.024718049 _3_ RTR  --- 5 tcp 1040 [0 0 0 0] ------- [3:0 0:0 32 0] [2 0] 0 0
s 7.024718049 _3_ AGT  --- 6 tcp 1040 [0 0 0 0] ------- [3:0 0:0 32 0] [3 0] 0 0
r 7.024718049 _3_ RTR  --- 6 tcp 1040 [0 0 0 0] ------- [3:0 0:0 32 0] [3 0] 0 0
s 7.024718049 _3_ RTR  --- 5 tcp 1040 [0 0 0 0] ------- [3:0 0:0 30 1] [2 0] 0 0
s 7.024718049 _3_ RTR  --- 6 tcp 1040 [0 0 0 0] ------- [3:0 0:0 30 1] [3 0] 0 0
r 7.026532256 _1_ RTR  --- 1 tcp 40 [102 1 3 800] ------- [3:0 0:0 30 1] [0 0] 1 0
f 7.026532256 _1_ RTR  --- 1 tcp 40 [102 1 3 800] ------- [3:0 0:0 29 0] [0 0] 1 0
r 7.027826776 _0_ AGT  --- 1 tcp 40 [102 0 1 800] ------- [3:0 0:0 29 0] [0 0] 2 0
s 7.027826776 _0_ AGT  --- 7 ack 40 [0 0 0 0] ------- [0:0 3:0 32 0] [1 0] 0 0
r 7.027826776 _0_ RTR  --- 7 ack 40 [0 0 0 0] ------- [0:0 3:0 32 0] [1 0] 0 0
s 7.027826776 _0_ RTR  --- 7 ack 40 [0 0 0 0] ------- [0:0 3:0 30 1] [1 0] 0 0
r 7.028981296 _1_ RTR  --- 7 ack 40 [102 1 0 800] ------- [0:0 3:0 30 1] [1 0] 1 0
f 7.028981296 _1_ RTR  --- 7 ack 40 [102 1 0 800] ------- [0:0 3:0 29 3] [1 0] 1 0
r 7.030135500 _3_ AGT  --- 7 ack 40 [102 3 1 800] ------- [0:0 3:0 29 3] [1 0] 2 0
s 7.030135500 _3_ AGT  --- 8 tcp 1040 [0 0 0 0] ------- [3:0 0:0 32 0] [4 0] 0 0
r 7.030135500 _3_ RTR  --- 8 tcp 1040 [0 0 0 0] ------- [3:0 0:0 32 0] [4 0] 0 0
s 7.030135500 _3_ RTR  --- 8 tcp 1040 [0 0 0 0] ------- [3:0 0:0 30 1] [4 0] 0 0
r 7.031976977 _1_ RTR  --- 5 tcp 1040 [102 1 3 800] ------- [3:0 0:0 30 1] [2 0] 1 0
f 7.031976977 _1_ RTR  --- 5 tcp 1040 [102 1 3 800] ------- [3:0 0:0 29 0] [2 0] 1 0
r 7.034078581 _1_ RTR  --- 6 tcp 1040 [102 1 3 800] ------- [3:0 0:0 30 1] [3 0] 1 0
f 7.034078581 _1_ RTR  --- 6 tcp 1040 [102 1 3 800] ------- [3:0 0:0 29 0] [3 0] 1 0
r 7.036080184 _1_ RTR  --- 8 tcp 1040 [102 1 3 800] ------- [3:0 0:0 30 1] [4 0] 1 0
f 7.036080184 _1_ RTR  --- 8 tcp 1040 [102 1 3 800] ------- [3:0 0:0 29 0] [4 0] 1 0
r 7.037941977 _0_ AGT  --- 5 tcp 1040 [102 0 1 800] ------- [3:0 0:0 29 0] [2 0] 2 0
s 7.037941977 _0_ AGT  --- 9 ack 40 [0 0 0 0] ------- [0:0 3:0 32 0] [2 0] 0 0
r 7.037941977 _0_ RTR  --- 9 ack 40 [0 0 0 0] ------- [0:0 3:0 32 0] [2 0] 0 0
s 7.037941977 _0_ RTR  --- 9 ack 40 [0 0 0 0] ------- [0:0 3:0 30 1] [2 0] 0 0
r 7.039764005 _0_ AGT  --- 6 tcp 1040 [102 0 1 800] ------- [3:0 0:0 29 0] [3 0] 2 0
s 7.039764005 _0_ AGT  --- 10 ack 40 [0 0 0 0] ------- [0:0 3:0 32 0] [3 0] 0 0
r 7.039764005 _0_ RTR  --- 10 ack 40 [0 0 0 0] ------- [0:0 3:0 32 0] [3 0] 0 0
s 7.039764005 _0_ RTR  --- 10 ack 40 [0 0 0 0] ------- [0:0 3:0 30 1] [3 0] 0 0
r 7.041806032 _0_ AGT  --- 8 tcp 1040 [102 0 1 800] ------- [3:0 0:0 29 0] [4 0] 2 0
s 7.041806032 _0_ AGT  --- 11 ack 40 [0 0 0 0] ------- [0:0 3:0 32 0] [4 0] 0 0
r 7.041806032 _0_ RTR  --- 11 ack 40 [0 0 0 0] ------- [0:0 3:0 32 0] [4 0] 0 0
s 7.041806032 _0_ RTR  --- 11 ack 40 [0 0 0 0] ------- [0:0 3:0 30 1] [4 0] 0 0
r 7.043160553 _1_ RTR  --- 9 ack 40 [102 1 0 800] ------- [0:0 3:0 30 1] [2 0] 1 0
f 7.043160553 _1_ RTR  --- 9 ack 40 [102 1 0 800] ------- [0:0 3:0 29 3] [2 0] 1 0
r 7.044314751 _3_ AGT  --- 9 ack 40 [102 3 1 800] ------- [0:0 3:0 29 3] [2 0] 2 0
r 7.045509380 _1_ RTR  --- 10 ack 40 [102 1 0 800] ------- [0:0 3:0 30 1] [3 0] 1 0
f 7.045509380 _1_ RTR  --- 10 ack 40 [102 1 0 800] ------- [0:0 3:0 29 3] [3 0] 1 0
r 7.046684135 _1_ RTR  --- 11 ack 40 [102 1 0 800] ------- [0:0 3:0 30 1] [4 0] 1 0
f 7.046684135 _1_ RTR  --- 11 ack 40 [102 1 0 800] ------- [0:0 3:0 29 3] [4 0] 1 0
r 7.047818332 _3_ AGT  --- 10 ack 40 [102 3 1 800] ------- [0:0 3:0 29 3] [3 0] 2 0
s 7.047818332 _3_ AGT  --- 12 tcp 1040 [0 0 0 0] ------- [3:0 0:0 32 0] [5 0] 0 0
r 7.047818332 _3_ RTR  --- 12 tcp 1040 [0 0 0 0] ------- [3:0 0:0 32 0] [5 0] 0 0
s 7.047818332 _3_ RTR  --- 12 tcp 1040 [0 0 0 0] ------- [3:0 0:0 30 1] [5 0] 0 0
r 7.049639800 _1_ RTR  --- 12 tcp 1040 [102 1 3 800] ------- [3:0 0:0 30 1] [5 0] 1 0
f 7.049639800 _1_ RTR  --- 12 tcp 1040 [102 1 3 800] ------- [3:0 0:0 29 0] [5 0] 1 0
r 7.050973996 _3_ AGT  --- 11 ack 40 [102 3 1 800] ------- [0:0 3:0 29 3] [4 0] 2 0
s 7.050973996 _3_ AGT  --- 13 tcp 1040 [0 0 0 0] ------- [3:0 0:0 32 0] [6 0] 0 0
r 7.050973996 _3_ RTR  --- 13 tcp 1040 [0 0 0 0] ------- [3:0 0:0 32 0] [6 0] 0 0
s 7.050973996 _3_ AGT  --- 14 tcp 1040 [0 0 0 0] ------- [3:0 0:0 32 0] [7 0] 0 0
r 7.050973996 _3_ RTR  --- 14 tcp 1040 [0 0 0 0] ------- [3:0 0:0 32 0] [7 0] 0 0
s 7.050973996 _3_ RTR  --- 13 tcp 1040 [0 0 0 0] ------- [3:0 0:0 30 1] [6 0] 0 0
s 7.050973996 _3_ RTR  --- 14 tcp 1040 [0 0 0 0] ------- [3:0 0:0 30 1] [7 0] 0 0
r 7.052875463 _1_ RTR  --- 13 tcp 1040 [102 1 3 800] ------- [3:0 0:0 30 1] [6 0] 1 0
f 7.052875463 _1_ RTR  --- 13 tcp 1040 [102 1 3 800] ------- [3:0 0:0 29 0] [6 0] 1 0
r 7.054717054 _1_ RTR  --- 14 tcp 1040 [102 1 3 800] ------- [3:0 0:0 30 1] [7 0] 1 0
f 7.054717054 _1_ RTR  --- 14 tcp 1040 [102 1 3 800] ------- [3:0 0:0 29 0] [7 0] 1 0
r 7.056738849 _0_ AGT  --- 12 tcp 1040 [102 0 1 800] ------- [3:0 0:0 29 0] [5 0] 2 0
s 7.056738849 _0_ AGT  --- 15 ack 40 [0 0 0 0] ------- [0:0 3:0 32 0] [5 0] 0 0
r 7.056738849 _0_ RTR  --- 15 ack 40 [0 0 0 0] ------- [0:0 3:0 32 0] [5 0] 0 0
s 7.056738849 _0_ RTR  --- 15 ack 40 [0 0 0 0] ------- [0:0 3:0 30 1] [5 0] 0 0
r 7.058680878 _0_ AGT  --- 13 tcp 1040 [102 0 1 800] ------- [3:0 0:0 29 0] [6 0] 2 0
s 7.058680878 _0_ AGT  --- 16 ack 40 [0 0 0 0] ------- [0:0 3:0 32 0] [6 0] 0 0
r 7.058680878 _0_ RTR  --- 16 ack 40 [0 0 0 0] ------- [0:0 3:0 32 0] [6 0] 0 0
s 7.058680878 _0_ RTR  --- 16 ack 40 [0 0 0 0] ------- [0:0 3:0 30 1] [6 0] 0 0
r 7.059895400 _1_ RTR  --- 15 ack 40 [102 1 0 800] ------- [0:0 3:0 30 1] [5 0] 1 0
f 7.059895400 _1_ RTR  --- 15 ack 40 [102 1 0 800] ------- [0:0 3:0 29 3] [5 0] 1 0
r 7.061030156 _1_ RTR  --- 16 ack 40 [102 1 0 800] ------- [0:0 3:0 30 1] [6 0] 1 0
f 7.061030156 _1_ RTR  --- 16 ack 40 [102 1 0 800] ------- [0:0 3:0 29 3] [6 0] 1 0
r 7.062991951 _0_ AGT  --- 14 tcp 1040 [102 0 1 800] ------- [3:0 0:0 29 0] [7 0] 2 0
s 7.062991951 _0_ AGT  --- 17 ack 40 [0 0 0 0] ------- [0:0 3:0 32 0] [7 0] 0 0
r 7.062991951 _0_ RTR  --- 17 ack 40 [0 0 0 0] ------- [0:0 3:0 32 0] [7 0] 0 0
s 7.062991951 _0_ RTR  --- 17 ack 40 [0 0 0 0] ------- [0:0 3:0 30 1] [7 0] 0 0
r 7.064206375 _3_ AGT  --- 15 ack 40 [102 3 1 800] ------- [0:0 3:0 29 3] [5 0] 2 0
s 7.064206375 _3_ AGT  --- 18 tcp 1040 [0 0 0 0] ------- [3:0 0:0 32 0] [8 0] 0 0
r 7.064206375 _3_ RTR  --- 18 tcp 1040 [0 0 0 0] ------- [3:0 0:0 32 0] [8 0] 0 0
s 7.064206375 _3_ RTR  --- 18 tcp 1040 [0 0 0 0] ------- [3:0 0:0 30 1] [8 0] 0 0
r 7.065400687 _3_ AGT  --- 16 ack 40 [102 3 1 800] ------- [0:0 3:0 29 3] [6 0] 2 0
s 7.065400687 _3_ AGT  --- 19 tcp 1040 [0 0 0 0] ------- [3:0 0:0 32 0] [9 0] 0 0
r 7.065400687 _3_ RTR  --- 19 tcp 1040 [0 0 0 0] ------- [3:0 0:0 32 0] [9 0] 0 0
s 7.065400687 _3_ RTR  --- 19 tcp 1040 [0 0 0 0] ------- [3:0 0:0 30 1] [9 0] 0 0
r 7.067539321 _1_ RTR  --- 17 ack 40 [102 1 0 800] ------- [0:0 3:0 30 1] [7 0] 1 0
f 7.067539321 _1_ RTR  --- 17 ack 40 [102 1 0 800] ------- [0:0 3:0 29 3] [7 0] 1 0
r 7.068973507 _3_ AGT  --- 17 ack 40 [102 3 1 800] ------- [0:0 3:0 29 3] [7 0] 2 0
s 7.068973507 _3_ AGT  --- 20 tcp 1040 [0 0 0 0] ------- [3:0 0:0 32 0] [10 0] 0 0
r 7.068973507 _3_ RTR  --- 20 tcp 1040 [0 0 0 0] ------- [3:0 0:0 32 0] [10 0] 0 0
s 7.068973507 _3_ AGT  --- 21 tcp 1040 [0 0 0 0] ------- [3:0 0:0 32 0] [11 0] 0 0
r 7.068973507 _3_ RTR  --- 21 tcp 1040 [0 0 0 0] ------- [3:0 0:0 32 0] [11 0] 0 0
s 7.068973507 _3_ RTR  --- 20 tcp 1040 [0 0 0 0] ------- [3:0 0:0 30 1] [10 0] 0 0
s 7.068973507 _3_ RTR  --- 21 tcp 1040 [0 0 0 0] ------- [3:0 0:0 30 1] [11 0] 0 0
r 7.072394966 _1_ RTR  --- 18 tcp 1040 [102 1 3 800] ------- [3:0 0:0 30 1] [8 0] 1 0
f 7.072394966 _1_ RTR  --- 18 tcp 1040 [102 1 3 800] ------- [3:0 0:0 29 0] [8 0] 1 0
r 7.074276761 _0_ AGT  --- 18 tcp 1040 [102 0 1 800] ------- [3:0 0:0 29 0] [8 0] 2 0
s 7.074276761 _0_ AGT  --- 22 ack 40 [0 0 0 0] ------- [0:0 3:0 32 0] [8 0] 0 0
r 7.074276761 _0_ RTR  --- 22 ack 40 [0 0 0 0] ------- [0:0 3:0 32 0] [8 0] 0 0
s 7.074276761 _0_ RTR  --- 22 ack 40 [0 0 0 0] ------- [0:0 3:0 30 1] [8 0] 0 0
r 7.075491284 _1_ RTR  --- 22 ack 40 [102 1 0 800] ------- [0:0 3:0 30 1] [8 0] 1 0
f 7.075491284 _1_ RTR  --- 22 ack 40 [102 1 0 800] ------- [0:0 3:0 29 3] [8 0] 1 0
r 7.077452862 _1_ RTR  --- 19 tcp 1040 [102 1 3 800] ------- [3:0 0:0 30 1] [9 0] 1 0
f 7.077452862 _1_ RTR  --- 19 tcp 1040 [102 1 3 800] ------- [3:0 0:0 29 0] [9 0] 1 0
r 7.078887044 _3_ AGT  --- 22 ack 40 [102 3 1 800] ------- [0:0 3:0 29 3] [8 0] 2 0
s 7.078887044 _3_ AGT  --- 23 tcp 1040 [0 0 0 0] ------- [3:0 0:0 32 0] [12 0] 0 0
r 7.078887044 _3_ RTR  --- 23 tcp 1040 [0 0 0 0] ------- [3:0 0:0 32 0] [12 0] 0 0
s 7.078887044 _3_ RTR  --- 23 tcp 1040 [0 0 0 0] ------- [3:0 0:0 30 1] [12 0] 0 0
r 7.080928499 _1_ RTR  --- 20 tcp 1040 [102 1 3 800] ------- [3:0 0:0 30 1] [10 0] 1 0
f 7.080928499 _1_ RTR  --- 20 tcp 1040 [102 1 3 800] ------- [3:0 0:0 29 0] [10 0] 1 0
r 7.082850295 _0_ AGT  --- 19 tcp 1040 [102 0 1 800] ------- [3:0 0:0 29 0] [9 0] 2 0
s 7.082850295 _0_ AGT  --- 24 ack 40 [0 0 0 0] ------- [0:0 3:0 32 0] [9 0] 0 0
r 7.082850295 _0_ RTR  --- 24 ack 40 [0 0 0 0] ------- [0:0 3:0 32 0] [9 0] 0 0
s 7.082850295 _0_ RTR  --- 24 ack 40 [0 0 0 0] ------- [0:0 3:0 30 1] [9 0] 0 0
r 7.085475633 _1_ RTR  --- 21 tcp 1040 [102 1 3 800] ------- [3:0 0:0 30 1] [11 0] 1 0
f 7.085475633 _1_ RTR  --- 21 tcp 1040 [102 1 3 800] ------- [3:0 0:0 29 0] [11 0] 1 0
r 7.087437430 _0_ AGT  --- 20 tcp 1040 [102 0 1 800] ------- [3:0 0:0 29 0] [10 0] 2 0
s 7.087437430 _0_ AGT  --- 25 ack 40 [0 0 0 0] ------- [0:0 3:0 32 0] [10 0] 0 0
r 7.087437430 _0_ RTR  --- 25 ack 40 [0 0 0 0] ------- [0:0 3:0 32 0] [10 0] 0 0
s 7.087437430 _0_ RTR  --- 25 ack 40 [0 0 0 0] ------- [0:0 3:0 30 1] [10 0] 0 0
r 7.090345461 _0_ AGT  --- 21 tcp 1040 [102 0 1 800] ------- [3:0 0:0 29 0] [11 0] 2 0
s 7.090345461 _0_ AGT  --- 26 ack 40 [0 0 0 0] ------- [0:0 3:0 32 0] [11 0] 0 0
r 7.090345461 _0_ RTR  --- 26 ack 40 [0 0 0 0] ------- [0:0 3:0 32 0] [11 0] 0 0
s 7.090345461 _0_ RTR  --- 26 ack 40 [0 0 0 0] ------- [0:0 3:0 30 1] [11 0] 0 0
r 7.092566795 _1_ RTR  --- 23 tcp 1040 [102 1 3 800] ------- [3:0 0:0 30 1] [12 0] 1 0
f 7.092566795 _1_ RTR  --- 23 tcp 1040 [102 1 3 800] ------- [3:0 0:0 29 0] [12 0] 1 0
r 7.094408592 _0_ AGT  --- 23 tcp 1040 [102 0 1 800] ------- [3:0 0:0 29 0] [12 0] 2 0
s 7.094408592 _0_ AGT  --- 27 ack 40 [0 0 0 0] ------- [0:0 3:0 32 0] [12 0] 0 0
r 7.094408592 _0_ RTR  --- 27 ack 40 [0 0 0 0] ------- [0:0 3:0 32 0] [12 0] 0 0
s 7.094408592 _0_ RTR  --- 27 ack 40 [0 0 0 0] ------- [0:0 3:0 30 1] [12 0] 0 0
r 7.096723116 _1_ RTR  --- 24 ack 40 [102 1 0 800] ------- [0:0 3:0 30 1] [9 0] 1 0
f 7.096723116 _1_ RTR  --- 24 ack 40 [102 1 0 800] ------- [0:0 3:0 29 3] [9 0] 1 0
r 7.097817876 _1_ RTR  --- 25 ack 40 [102 1 0 800] ------- [0:0 3:0 30 1] [10 0] 1 0
f 7.097817876 _1_ RTR  --- 25 ack 40 [102 1 0 800] ------- [0:0 3:0 29 3] [10 0] 1 0
r 7.099052636 _1_ RTR  --- 26 ack 40 [102 1 0 800] ------- [0:0 3:0 30 1] [11 0] 1 0
f 7.099052636 _1_ RTR  --- 26 ack 40 [102 1 0 800] ------- [0:0 3:0 29 3] [11 0] 1 0
r 7.100226809 _3_ AGT  --- 24 ack 40 [102 3 1 800] ------- [0:0 3:0 29 3] [9 0] 2 0
s 7.100226809 _3_ AGT  --- 28 tcp 1040 [0 0 0 0] ------- [3:0 0:0 32 0] [13 0] 0 0
r 7.100226809 _3_ RTR  --- 28 tcp 1040 [0 0 0 0] ------- [3:0 0:0 32 0] [13 0] 0 0
s 7.100226809 _3_ RTR  --- 28 tcp 1040 [0 0 0 0] ------- [3:0 0:0 30 1] [13 0] 0 0
r 7.103072253 _1_ RTR  --- 28 tcp 1040 [102 1 3 800] ------- [3:0 0:0 30 1] [13 0] 1 0
f 7.103072253 _1_ RTR  --- 28 tcp 1040 [102 1 3 800] ------- [3:0 0:0 29 0] [13 0] 1 0
r 7.104306424 _3_ AGT  --- 25 ack 40 [102 3 1 800] ------- [0:0 3:0 29 3] [10 0] 2 0
s 7.104306424 _3_ AGT  --- 29 tcp 1040 [0 0 0 0] ------- [3:0 0:0 32 0] [14 0] 0 0
r 7.104306424 _3_ RTR  --- 29 tcp 1040 [0 0 0 0] ------- [3:0 0:0 32 0] [14 0] 0 0
s 7.104306424 _3_ RTR  --- 29 tcp 1040 [0 0 0 0] ------- [3:0 0:0 30 1] [14 0] 0 0
r 7.105420712 _3_ AGT  --- 26 ack 40 [102 3 1 800] ------- [0:0 3:0 29 3] [11 0] 2 0
s 7.105420712 _3_ AGT  --- 30 tcp 1040 [0 0 0 0] ------- [3:0 0:0 32 0] [15 0] 0 0
r 7.105420712 _3_ RTR  --- 30 tcp 1040 [0 0 0 0] ------- [3:0 0:0 32 0] [15 0] 0 0
s 7.105420712 _3_ RTR  --- 30 tcp 1040 [0 0 0 0] ------- [3:0 0:0 30 1] [15 0] 0 0
r 7.107262154 _1_ RTR  --- 29 tcp 1040 [102 1 3 800] ------- [3:0 0:0 30 1] [14 0] 1 0
f 7.107262154 _1_ RTR  --- 29 tcp 1040 [102 1 3 800] ------- [3:0 0:0 29 0] [14 0] 1 0
r 7.110030424 _0_ AGT  --- 28 tcp 1040 [102 0 1 800] ------- [3:0 0:0 29 0] [13 0] 2 0
s 7.110030424 _0_ AGT  --- 31 ack 40 [0 0 0 0] ------- [0:0 3:0 32 0] [13 0] 0 0
r 7.110030424 _0_ RTR  --- 31 ack 40 [0 0 0 0] ------- [0:0 3:0 32 0] [13 0] 0 0
s 7.110030424 _0_ RTR  --- 31 ack 40 [0 0 0 0] ------- [0:0 3:0 30 1] [13 0] 0 0
r 7.113338457 _0_ AGT  --- 29 tcp 1040 [102 0 1 800] ------- [3:0 0:0 29 0] [14 0] 2 0
s 7.113338457 _0_ AGT  --- 32 ack 40 [0 0 0 0] ------- [0:0 3:0 32 0] [14 0] 0 0
r 7.113338457 _0_ RTR  --- 32 ack 40 [0 0 0 0] ------- [0:0 3:0 32 0] [14 0] 0 0
s 7.113338457 _0_ RTR  --- 32 ack 40 [0 0 0 0] ------- [0:0 3:0 30 1] [14 0] 0 0
r 7.116499776 _1_ RTR  --- 30 tcp 1040 [102 1 3 800] ------- [3:0 0:0 30 1] [15 0] 1 0
f 7.116499776 _1_ RTR  --- 30 tcp 1040 [102 1 3 800] ------- [3:0 0:0 29 0] [15 0] 1 0
r 7.118341575 _0_ AGT  --- 30 tcp 1040 [102 0 1 800] ------- [3:0 0:0 29 0] [15 0] 2 0
s 7.118341575 _0_ AGT  --- 33 ack 40 [0 0 0 0] ------- [0:0 3:0 32 0] [15 0] 0 0
r 7.118341575 _0_ RTR  --- 33 ack 40 [0 0 0 0] ------- [0:0 3:0 32 0] [15 0] 0 0
s 7.118341575 _0_ RTR  --- 33 ack 40 [0 0 0 0] ------- [0:0 3:0 30 1] [15 0] 0 0
r 7.120436101 _1_ RTR  --- 27 ack 40 [102 1 0 800] ------- [0:0 3:0 30 1] [12 0] 1 0
f 7.120436101 _1_ RTR  --- 27 ack 40 [102 1 0 800] ------- [0:0 3:0 29 3] [12 0] 1 0
r 7.123016735 _3_ AGT  --- 27 ack 40 [102 3 1 800] ------- [0:0 3:0 29 3] [12 0] 2 0
s 7.123016735 _3_ AGT  --- 34 tcp 1040 [0 0 0 0] ------- [3:0 0:0 32 0] [16 0] 0 0
r 7.123016735 _3_ RTR  --- 34 tcp 1040 [0 0 0 0] ------- [3:0 0:0 32 0] [16 0] 0 0
s 7.123016735 _3_ AGT  --- 35 tcp 1040 [0 0 0 0] ------- [3:0 0:0 32 0] [17 0] 0 0
r 7.123016735 _3_ RTR  --- 35 tcp 1040 [0 0 0 0] ------- [3:0 0:0 32 0] [17 0] 0 0
s 7.123016735 _3_ RTR  --- 34 tcp 1040 [0 0 0 0] ------- [3:0 0:0 30 1] [16 0] 0 0
s 7.123016735 _3_ RTR  --- 35 tcp 1040 [0 0 0 0] ------- [3:0 0:0 30 1] [17 0] 0 0
r 7.125218170 _1_ RTR  --- 34 tcp 1040 [102 1 3 800] ------- [3:0 0:0 30 1] [16 0] 1 0
f 7.125218170 _1_ RTR  --- 34 tcp 1040 [102 1 3 800] ------- [3:0 0:0 29 0] [16 0] 1 0
r 7.127159969 _0_ AGT  --- 34 tcp 1040 [102 0 1 800] ------- [3:0 0:0 29 0] [16 0] 2 0
s 7.127159969 _0_ AGT  --- 36 ack 40 [0 0 0 0] ------- [0:0 3:0 32 0] [16 0] 0 0
r 7.127159969 _0_ RTR  --- 36 ack 40 [0 0 0 0] ------- [0:0 3:0 32 0] [16 0] 0 0
s 7.127159969 _0_ RTR  --- 36 ack 40 [0 0 0 0] ------- [0:0 3:0 30 1] [16 0] 0 0
r 7.128634495 _1_ RTR  --- 31 ack 40 [102 1 0 800] ------- [0:0 3:0 30 1] [13 0] 1 0
f 7.128634495 _1_ RTR  --- 31 ack 40 [102 1 0 800] ------- [0:0 3:0 29 3] [13 0] 1 0
r 7.129909258 _1_ RTR  --- 32 ack 40 [102 1 0 800] ------- [0:0 3:0 30 1] [14 0] 1 0
f 7.129909258 _1_ RTR  --- 32 ack 40 [102 1 0 800] ------- [0:0 3:0 29 3] [14 0] 1 0
r 7.131144021 _1_ RTR  --- 33 ack 40 [102 1 0 800] ------- [0:0 3:0 30 1] [15 0] 1 0
f 7.131144021 _1_ RTR  --- 33 ack 40 [102 1 0 800] ------- [0:0 3:0 29 3] [15 0] 1 0
r 7.132458179 _3_ AGT  --- 31 ack 40 [102 3 1 800] ------- [0:0 3:0 29 3] [13 0] 2 0
s 7.132458179 _3_ AGT  --- 37 tcp 1040 [0 0 0 0] ------- [3:0 0:0 32 0] [18 0] 0 0
r 7.132458179 _3_ RTR  --- 37 tcp 1040 [0 0 0 0] ------- [3:0 0:0 32 0] [18 0] 0 0
s 7.132458179 _3_ RTR  --- 37 tcp 1040 [0 0 0 0] ------- [3:0 0:0 30 1] [18 0] 0 0
r 7.133552450 _3_ AGT  --- 32 ack 40 [102 3 1 800] ------- [0:0 3:0 29 3] [14 0] 2 0
s 7.133552450 _3_ AGT  --- 38 tcp 1040 [0 0 0 0] ------- [3:0 0:0 32 0] [19 0] 0 0
r 7.133552450 _3_ RTR  --- 38 tcp 1040 [0 0 0 0] ------- [3:0 0:0 32 0] [19 0] 0 0
s 7.133552450 _3_ RTR  --- 38 tcp 1040 [0 0 0 0] ------- [3:0 0:0 30 1] [19 0] 0 0
r 7.135413880 _1_ RTR  --- 35 tcp 1040 [102 1 3 800] ------- [3:0 0:0 30 1] [17 0] 1 0
f 7.135413880 _1_ RTR  --- 35 tcp 1040 [102 1 3 800] ------- [3:0 0:0 29 0] [17 0] 1 0
r 7.137235422 _1_ RTR  --- 37 tcp 1040 [102 1 3 800] ------- [3:0 0:0 30 1] [18 0] 1 0
f 7.137235422 _1_ RTR  --- 37 tcp 1040 [102 1 3 800] ------- [3:0 0:0 29 0] [18 0] 1 0
r 7.138409578 _3_ AGT  --- 33 ack 40 [102 3 1 800] ------- [0:0 3:0 29 3] [15 0] 2 0
s 7.138409578 _3_ AGT  --- 39 tcp 1040 [0 0 0 0] ------- [3:0 0:0 32 0] [20 0] 0 0
r 7.138409578 _3_ RTR  --- 39 tcp 1040 [0 0 0 0] ------- [3:0 0:0 32 0] [20 0] 0 0
s 7.138409578 _3_ RTR  --- 39 tcp 1040 [0 0 0 0] ------- [3:0 0:0 30 1] [20 0] 0 0
r 7.139888453 _1_ RTR  --- 36 ack 40 [102 1 0 800] ------- [0:0 3:0 30 1] [16 0] 1 0
f 7.139888453 _1_ RTR  --- 36 ack 40 [102 1 0 800] ------- [0:0 3:0 29 3] [16 0] 1 0
r 7.141890253 _0_ AGT  --- 35 tcp 1040 [102 0 1 800] ------- [3:0 0:0 29 0] [17 0] 2 0
s 7.141890253 _0_ AGT  --- 40 ack 40 [0 0 0 0] ------- [0:0 3:0 32 0] [17 0] 0 0
r 7.141890253 _0_ RTR  --- 40 ack 40 [0 0 0 0] ------- [0:0 3:0 32 0] [17 0] 0 0
s 7.141890253 _0_ RTR  --- 40 ack 40 [0 0 0 0] ------- [0:0 3:0 30 1] [17 0] 0 0
r 7.143384781 _1_ RTR  --- 40 ack 40 [102 1 0 800] ------- [0:0 3:0 30 1] [17 0] 1 0
f 7.143384781 _1_ RTR  --- 40 ack 40 [102 1 0 800] ------- [0:0 3:0 29 3] [17 0] 1 0
r 7.145332317 _1_ RTR  --- 38 tcp 1040 [102 1 3 800] ------- [3:0 0:0 30 1] [19 0] 1 0
f 7.145332317 _1_ RTR  --- 38 tcp 1040 [102 1 3 800] ------- [3:0 0:0 29 0] [19 0] 1 0
r 7.147214118 _0_ AGT  --- 37 tcp 1040 [102 0 1 800] ------- [3:0 0:0 29 0] [18 0] 2 0
s 7.147214118 _0_ AGT  --- 41 ack 40 [0 0 0 0] ------- [0:0 3:0 32 0] [18 0] 0 0
r 7.147214118 _0_ RTR  --- 41 ack 40 [0 0 0 0] ------- [0:0 3:0 32 0] [18 0] 0 0
s 7.147214118 _0_ RTR  --- 41 ack 40 [0 0 0 0] ------- [0:0 3:0 30 1] [18 0] 0 0
r 7.148408646 _1_ RTR  --- 41 ack 40 [102 1 0 800] ------- [0:0 3:0 30 1] [18 0] 1 0
f 7.148408646 _1_ RTR  --- 41 ack 40 [102 1 0 800] ------- [0:0 3:0 29 3] [18 0] 1 0
r 7.149542796 _3_ AGT  --- 36 ack 40 [102 3 1 800] ------- [0:0 3:0 29 3] [16 0] 2 0
s 7.149542796 _3_ AGT  --- 42 tcp 1040 [0 0 0 0] ------- [3:0 0:0 32 0] [21 0] 0 0
r 7.149542796 _3_ RTR  --- 42 tcp 1040 [0 0 0 0] ------- [3:0 0:0 32 0] [21 0] 0 0
s 7.149542796 _3_ RTR  --- 42 tcp 1040 [0 0 0 0] ------- [3:0 0:0 30 1] [21 0] 0 0
r 7.151844219 _1_ RTR  --- 39 tcp 1040 [102 1 3 800] ------- [3:0 0:0 30 1] [20 0] 1 0
f 7.151844219 _1_ RTR  --- 39 tcp 1040 [102 1 3 800] ------- [3:0 0:0 29 0] [20 0] 1 0
r 7.152998368 _3_ AGT  --- 40 ack 40 [102 3 1 800] ------- [0:0 3:0 29 3] [17 0] 2 0
s 7.152998368 _3_ AGT  --- 43 tcp 1040 [0 0 0 0] ------- [3:0 0:0 32 0] [22 0] 0 0
r 7.152998368 _3_ RTR  --- 43 tcp 1040 [0 0 0 0] ------- [3:0 0:0 32 0] [22 0] 0 0
s 7.152998368 _3_ AGT  --- 44 tcp 1040 [0 0 0 0] ------- [3:0 0:0 32 0] [23 0] 0 0
r 7.152998368 _3_ RTR  --- 44 tcp 1040 [0 0 0 0] ------- [3:0 0:0 32 0] [23 0] 0 0
s 7.152998368 _3_ RTR  --- 43 tcp 1040 [0 0 0 0] ------- [3:0 0:0 30 1] [22 0] 0 0
s 7.152998368 _3_ RTR  --- 44 tcp 1040 [0 0 0 0] ------- [3:0 0:0 30 1] [23 0] 0 0
r 7.154879789 _1_ RTR  --- 42 tcp 1040 [102 1 3 800] ------- [3:0 0:0 30 1] [21 0] 1 0
f 7.154879789 _1_ RTR  --- 42 tcp 1040 [102 1 3 800] ------- [3:0 0:0 29 0] [21 0] 1 0
r 7.156701320 _1_ RTR  --- 43 tcp 1040 [102 1 3 800] ------- [3:0 0:0 30 1] [22 0] 1 0
f 7.156701320 _1_ RTR  --- 43 tcp 1040 [102 1 3 800] ------- [3:0 0:0 29 0] [22 0] 1 0
r 7.158663121 _0_ AGT  --- 38 tcp 1040 [102 0 1 800] ------- [3:0 0:0 29 0] [19 0] 2 0
s 7.158663121 _0_ AGT  --- 45 ack 40 [0 0 0 0] ------- [0:0 3:0 32 0] [19 0] 0 0
r 7.158663121 _0_ RTR  --- 45 ack 40 [0 0 0 0] ------- [0:0 3:0 32 0] [19 0] 0 0
s 7.158663121 _0_ RTR  --- 45 ack 40 [0 0 0 0] ------- [0:0 3:0 30 1] [19 0] 0 0
r 7.159837650 _1_ RTR  --- 45 ack 40 [102 1 0 800] ------- [0:0 3:0 30 1] [19 0] 1 0
f 7.159837650 _1_ RTR  --- 45 ack 40 [102 1 0 800] ------- [0:0 3:0 29 3] [19 0] 1 0
r 7.162025176 _1_ RTR  --- 44 tcp 1040 [102 1 3 800] ------- [3:0 0:0 30 1] [23 0] 1 0
f 7.162025176 _1_ RTR  --- 44 tcp 1040 [102 1 3 800] ------- [3:0 0:0 29 0] [23 0] 1 0
r 7.163179321 _3_ AGT  --- 41 ack 40 [102 3 1 800] ------- [0:0 3:0 29 3] [18 0] 2 0
s 7.163179321 _3_ AGT  --- 46 tcp 1040 [0 0 0 0] ------- [3:0 0:0 32 0] [24 0] 0 0
r 7.163179321 _3_ RTR  --- 46 tcp 1040 [0 0 0 0] ------- [3:0 0:0 32 0] [24 0] 0 0
s 7.163179321 _3_ RTR  --- 46 tcp 1040 [0 0 0 0] ------- [3:0 0:0 30 1] [24 0] 0 0
r 7.165120738 _1_ RTR  --- 46 tcp 1040 [102 1 3 800] ------- [3:0 0:0 30 1] [24 0] 1 0
f 7.165120738 _1_ RTR  --- 46 tcp 1040 [102 1 3 800] ------- [3:0 0:0 29 0] [24 0] 1 0
r 7.167202540 _0_ AGT  --- 39 tcp 1040 [102 0 1 800] ------- [3:0 0:0 29 0] [20 0] 2 0
s 7.167202540 _0_ AGT  --- 47 ack 40 [0 0 0 0] ------- [0:0 3:0 32 0] [20 0] 0 0
r 7.167202540 _0_ RTR  --- 47 ack 40 [0 0 0 0] ------- [0:0 3:0 32 0] [20 0] 0 0
s 7.167202540 _0_ RTR  --- 47 ack 40 [0 0 0 0] ------- [0:0 3:0 30 1] [20 0] 0 0
r 7.168797069 _1_ RTR  --- 47 ack 40 [102 1 0 800] ------- [0:0 3:0 30 1] [20 0] 1 0
f 7.168797069 _1_ RTR  --- 47 ack 40 [102 1 0 800] ------- [0:0 3:0 29 3] [20 0] 1 0
r 7.170718871 _0_ AGT  --- 42 tcp 1040 [102 0 1 800] ------- [3:0 0:0 29 0] [21 0] 2 0
s 7.170718871 _0_ AGT  --- 48 ack 40 [0 0 0 0] ------- [0:0 3:0 32 0] [21 0] 0 0
r 7.170718871 _0_ RTR  --- 48 ack 40 [0 0 0 0] ------- [0:0 3:0 32 0] [21 0] 0 0
s 7.170718871 _0_ RTR  --- 48 ack 40 [0 0 0 0] ------- [0:0 3:0 30 1] [21 0] 0 0
r 7.171853401 _1_ RTR  --- 48 ack 40 [102 1 0 800] ------- [0:0 3:0 30 1] [21 0] 1 0
f 7.171853401 _1_ RTR  --- 48 ack 40 [102 1 0 800] ------- [0:0 3:0 29 3] [21 0] 1 0
r 7.174175203 _0_ AGT  --- 43 tcp 1040 [102 0 1 800] ------- [3:0 0:0 29 0] [22 0] 2 0
s 7.174175203 _0_ AGT  --- 49 ack 40 [0 0 0 0] ------- [0:0 3:0 32 0] [22 0] 0 0
r 7.174175203 _0_ RTR  --- 49 ack 40 [0 0 0 0] ------- [0:0 3:0 32 0] [22 0] 0 0
s 7.174175203 _0_ RTR  --- 49 ack 40 [0 0 0 0] ------- [0:0 3:0 30 1] [22 0] 0 0
r 7.177016207 _1_ RTR  --- 49 ack 40 [102 1 0 800] ------- [0:0 3:0 30 1] [22 0] 1 0
f 7.177016207 _1_ RTR  --- 49 ack 40 [102 1 0 800] ------- [0:0 3:0 29 3] [22 0] 1 0
r 7.178290345 _3_ AGT  --- 45 ack 40 [102 3 1 800] ------- [0:0 3:0 29 3] [19 0] 2 0
s 7.178290345 _3_ AGT  --- 50 tcp 1040 [0 0 0 0] ------- [3:0 0:0 32 0] [25 0] 0 0
r 7.178290345 _3_ RTR  --- 50 tcp 1040 [0 0 0 0] ------- [3:0 0:0 32 0] [25 0] 0 0
s 7.178290345 _3_ RTR  --- 50 tcp 1040 [0 0 0 0] ------- [3:0 0:0 30 1] [25 0] 0 0
r 7.180191755 _1_ RTR  --- 50 tcp 1040 [102 1 3 800] ------- [3:0 0:0 30 1] [25 0] 1 0
f 7.180191755 _1_ RTR  --- 50 tcp 1040 [102 1 3 800] ------- [3:0 0:0 29 0] [25 0] 1 0
r 7.182513558 _0_ AGT  --- 44 tcp 1040 [102 0 1 800] ------- [3:0 0:0 29 0] [23 0] 2 0
s 7.182513558 _0_ AGT  --- 51 ack 40 [0 0 0 0] ------- [0:0 3:0 32 0] [23 0] 0 0
r 7.182513558 _0_ RTR  --- 51 ack 40 [0 0 0 0] ------- [0:0 3:0 32 0] [23 0] 0 0
s 7.182513558 _0_ RTR  --- 51 ack 40 [0 0 0 0] ------- [0:0 3:0 30 1] [23 0] 0 0
r 7.184655599 _0_ AGT  --- 46 tcp 1040 [102 0 1 800] ------- [3:0 0:0 29 0] [24 0] 2 0
s 7.184655599 _0_ AGT  --- 52 ack 40 [0 0 0 0] ------- [0:0 3:0 32 0] [24 0] 0 0
r 7.184655599 _0_ RTR  --- 52 ack 40 [0 0 0 0] ------- [0:0 3:0 32 0] [24 0] 0 0
s 7.184655599 _0_ RTR  --- 52 ack 40 [0 0 0 0] ------- [0:0 3:0 30 1] [24 0] 0 0
r 7.185770129 _1_ RTR  --- 51 ack 40 [102 1 0 800] ------- [0:0 3:0 30 1] [23 0] 1 0
f 7.185770129 _1_ RTR  --- 51 ack 40 [102 1 0 800] ------- [0:0 3:0 29 3] [23 0] 1 0
r 7.186904897 _1_ RTR  --- 52 ack 40 [102 1 0 800] ------- [0:0 3:0 30 1] [24 0] 1 0
f 7.186904897 _1_ RTR  --- 52 ack 40 [102 1 0 800] ------- [0:0 3:0 29 3] [24 0] 1 0
r 7.188419031 _3_ AGT  --- 47 ack 40 [102 3 1 800] ------- [0:0 3:0 29 3] [20 0] 2 0
s 7.188419031 _3_ AGT  --- 53 tcp 1040 [0 0 0 0] ------- [3:0 0:0 32 0] [26 0] 0 0
r 7.188419031 _3_ RTR  --- 53 tcp 1040 [0 0 0 0] ------- [3:0 0:0 32 0] [26 0] 0 0
s 7.188419031 _3_ RTR  --- 53 tcp 1040 [0 0 0 0] ------- [3:0 0:0 30 1] [26 0] 0 0
r 7.189593269 _3_ AGT  --- 48 ack 40 [102 3 1 800] ------- [0:0 3:0 29 3] [21 0] 2 0
s 7.189593269 _3_ AGT  --- 54 tcp 1040 [0 0 0 0] ------- [3:0 0:0 32 0] [27 0] 0 0
r 7.189593269 _3_ RTR  --- 54 tcp 1040 [0 0 0 0] ------- [3:0 0:0 32 0] [27 0] 0 0
s 7.189593269 _3_ RTR  --- 54 tcp 1040 [0 0 0 0] ------- [3:0 0:0 30 1] [27 0] 0 0
r 7.191834674 _1_ RTR  --- 53 tcp 1040 [102 1 3 800] ------- [3:0 0:0 30 1] [26 0] 1 0
f 7.191834674 _1_ RTR  --- 53 tcp 1040 [102 1 3 800] ------- [3:0 0:0 29 0] [26 0] 1 0
r 7.193656183 _1_ RTR  --- 54 tcp 1040 [102 1 3 800] ------- [3:0 0:0 30 1] [27 0] 1 0
f 7.193656183 _1_ RTR  --- 54 tcp 1040 [102 1 3 800] ------- [3:0 0:0 29 0] [27 0] 1 0
r 7.194950313 _3_ AGT  --- 49 ack 40 [102 3 1 800] ------- [0:0 3:0 29 3] [22 0] 2 0
s 7.194950313 _3_ AGT  --- 55 tcp 1040 [0 0 0 0] ------- [3:0 0:0 32 0] [28 0] 0 0
r 7.194950313 _3_ RTR  --- 55 tcp 1040 [0 0 0 0] ------- [3:0 0:0 32 0] [28 0] 0 0
s 7.194950313 _3_ RTR  --- 55 tcp 1040 [0 0 0 0] ------- [3:0 0:0 30 1] [28 0] 0 0
r 7.197092221 _0_ AGT  --- 50 tcp 1040 [102 0 1 800] ------- [3:0 0:0 29 0] [25 0] 2 0
s 7.197092221 _0_ AGT  --- 56 ack 40 [0 0 0 0] ------- [0:0 3:0 32 0] [25 0] 0 0
r 7.197092221 _0_ RTR  --- 56 ack 40 [0 0 0 0] ------- [0:0 3:0 32 0] [25 0] 0 0
s 7.197092221 _0_ RTR  --- 56 ack 40 [0 0 0 0] ------- [0:0 3:0 30 1] [25 0] 0 0
r 7.198246588 _3_ AGT  --- 51 ack 40 [102 3 1 800] ------- [0:0 3:0 29 3] [23 0] 2 0
s 7.198246588 _3_ AGT  --- 57 tcp 1040 [0 0 0 0] ------- [3:0 0:0 32 0] [29 0] 0 0
r 7.198246588 _3_ RTR  --- 57 tcp 1040 [0 0 0 0] ------- [3:0 0:0 32 0] [29 0] 0 0