n -t * -s 0  -x 200 -y 10 -Z 0 -z 30  -v circle -c black
n -t * -s 1  -x 200 -y 10 -Z 0 -z 30  -v circle -c black
n -t * -s 2  -x 200 -y 10 -Z 0 -z 30  -v circle -c black
n -t * -s 3  -x 200 -y 400 -Z 0 -z 30  -v circle -c black
V -t * -v 1.0a5 -a 0
W -t * -x 900 -y 900
A -t * -n 1 -p 0 -o 0x7fffffff -c 30 -a 1
A -t * -h 1 -m 1073741823 -s 0
n -t 0.000000 -s 0 -x 200.000000 -y 10.000000 -U 0.000000 -V 40.000000 -T 9.750000
n -t 0.000000 -s 1 -x 200.000000 -y 10.000000 -U 0.000000 -V 50.000000 -T 7.800000
n -t 0.000000 -s 2 -x 200.000000 -y 10.000000 -U 0.000000 -V 60.000000 -T 6.500000
+ -t 1.000000000 -s 3 -d -1 -p tcp -e 40 -c 2 -a 0 -i 0 -k AGT 
- -t 1.000000000 -s 3 -d -1 -p tcp -e 40 -c 2 -a 0 -i 0 -k AGT
h -t 1.000000000 -s 3 -d -1 -p tcp -e 40 -c 2 -a 0 -i 0 -k AGT
+ -t 1.000000000 -s 3 -d -1 -p AODV -e 48 -c 2 -a 0 -i 0 -k RTR 
- -t 1.000000000 -s 3 -d -1 -p AODV -e 48 -c 2 -a 0 -i 0 -k RTR
h -t 1.000000000 -s 3 -d -1 -p AODV -e 48 -c 2 -a 0 -i 0 -k RTR
+ -t 3.000000000 -s 3 -d -1 -p AODV -e 48 -c 2 -a 0 -i 0 -k RTR 
- -t 3.000000000 -s 3 -d -1 -p AODV -e 48 -c 2 -a 0 -i 0 -k RTR
h -t 3.000000000 -s 3 -d -1 -p AODV -e 48 -c 2 -a 0 -i 0 -k RTR
+ -t 4.000000000 -s 3 -d -1 -p tcp -e 40 -c 2 -a 0 -i 1 -k AGT 
- -t 4.000000000 -s 3 -d -1 -p tcp -e 40 -c 2 -a 0 -i 1 -k AGT
h -t 4.000000000 -s 3 -d -1 -p tcp -e 40 -c 2 -a 0 -i 1 -k AGT
n -t 7.000000 -s 1 -x 200.000000 -y 360.000000 -U 19.230769 -V 46.153846 -T 5.200000
+ -t 7.000000000 -s 3 -d -1 -p AODV -e 48 -c 2 -a 0 -i 0 -k RTR 
- -t 7.000000000 -s 3 -d -1 -p AODV -e 48 -c 2 -a 0 -i 0 -k RTR
h -t 7.000000000 -s 3 -d -1 -p AODV -e 48 -c 2 -a 0 -i 0 -k RTR
r -t 7.000620000 -s 2 -d -1 -p AODV -e 48 -c 2 -a 0 -i 0 -k RTR
r -t 7.000620133 -s 1 -d -1 -p AODV -e 48 -c 2 -a 0 -i 0 -k RTR
+ -t 7.002966151 -s 1 -d -1 -p AODV -e 48 -c 2 -a 0 -i 0 -k RTR 
- -t 7.002966151 -s 1 -d -1 -p AODV -e 48 -c 2 -a 0 -i 0 -k RTR
h -t 7.002966151 -s 1 -d -1 -p AODV -e 48 -c 2 -a 0 -i 0 -k RTR
r -t 7.003946284 -s 3 -d -1 -p AODV -e 48 -c 2 -a 0 -i 0 -k RTR
r -t 7.003946284 -s 2 -d -1 -p AODV -e 48 -c 2 -a 0 -i 0 -k RTR
r -t 7.003946384 -s 0 -d -1 -p AODV -e 48 -c 2 -a 0 -i 0 -k RTR
+ -t 7.003946384 -s 0 -d 1 -p AODV -e 44 -c 2 -a 0 -i 0 -k RTR 
- -t 7.003946384 -s 0 -d 1 -p AODV -e 44 -c 2 -a 0 -i 0 -k RTR
h -t 7.003946384 -s 0 -d 1 -p AODV -e 44 -c 2 -a 0 -i 0 -k RTR
+ -t 7.007336837 -s 1 -d 3 -p AODV -e 44 -c 2 -a 0 -i 0 -k RTR 
- -t 7.007336837 -s 1 -d 3 -p AODV -e 44 -c 2 -a 0 -i 0 -k RTR
h -t 7.007336837 -s 1 -d 3 -p AODV -e 44 -c 2 -a 0 -i 0 -k RTR
+ -t 7.008784761 -s 2 -d -1 -p AODV -e 48 -c 2 -a 0 -i 0 -k RTR 
- -t 7.008784761 -s 2 -d -1 -p AODV -e 48 -c 2 -a 0 -i 0 -k RTR
h -t 7.008784761 -s 2 -d -1 -p AODV -e 48 -c 2 -a 0 -i 0 -k RTR
+ -t 7.011014578 -s 3 -d 1 -p tcp -e 40 -c 2 -a 0 -i 0 -k RTR 
- -t 7.011014578 -s 3 -d 1 -p tcp -e 40 -c 2 -a 0 -i 0 -k RTR
h -t 7.011014578 -s 3 -d 1 -p tcp -e 40 -c 2 -a 0 -i 0 -k RTR
r -t 7.011882587 -s 3 -d -1 -p AODV -e 48 -c 2 -a 0 -i 0 -k RTR
r -t 7.011882719 -s 1 -d -1 -p AODV -e 48 -c 2 -a 0 -i 0 -k RTR
+ -t 7.012898800 -s 1 -d 0 -p tcp -e 40 -c 2 -a 0 -i 0 -k RTR 
- -t 7.012898800 -s 1 -d 0 -p tcp -e 40 -c 2 -a 0 -i 0 -k RTR
h -t 7.012898800 -s 1 -d 0 -p tcp -e 40 -c 2 -a 0 -i 0 -k RTR
r -t 7.014433319 -s 0 -d 0 -p tcp -e 40 -c 2 -a 0 -i 0 -k AGT
+ -t 7.014433319 -s 0 -d -1 -p ack -e 40 -c 2 -a 0 -i 2 -k AGT 
- -t 7.014433319 -s 0 -d -1 -p ack -e 40 -c 2 -a 0 -i 2 -k AGT
h -t 7.014433319 -s 0 -d -1 -p ack -e 40 -c 2 -a 0 -i 2 -k AGT
+ -t 7.014433319 -s 0 -d 1 -p ack -e 40 -c 2 -a 0 -i 2 -k RTR 
- -t 7.014433319 -s 0 -d 1 -p ack -e 40 -c 2 -a 0 -i 2 -k RTR
h -t 7.014433319 -s 0 -d 1 -p ack -e 40 -c 2 -a 0 -i 2 -k RTR
+ -t 7.016107838 -s 1 -d 3 -p ack -e 40 -c 2 -a 0 -i 2 -k RTR 
- -t 7.016107838 -s 1 -d 3 -p ack -e 40 -c 2 -a 0 -i 2 -k RTR
h -t 7.016107838 -s 1 -d 3 -p ack -e 40 -c 2 -a 0 -i 2 -k RTR
r -t 7.017742048 -s 3 -d 3 -p ack -e 40 -c 2 -a 0 -i 2 -k AGT
+ -t 7.017742048 -s 3 -d -1 -p tcp -e 1040 -c 2 -a 0 -i 3 -k AGT 
- -t 7.017742048 -s 3 -d -1 -p tcp -e 1040 -c 2 -a 0 -i 3 -k AGT
h -t 7.017742048 -s 3 -d -1 -p tcp -e 1040 -c 2 -a 0 -i 3 -k AGT
+ -t 7.017742048 -s 3 -d 1 -p tcp -e 1040 -c 2 -a 0 -i 3 -k RTR 
- -t 7.017742048 -s 3 -d 1 -p tcp -e 1040 -c 2 -a 0 -i 3 -k RTR
h -t 7.017742048 -s 3 -d 1 -p tcp -e 1040 -c 2 -a 0 -i 3 -k RTR
+ -t 7.019603531 -s 1 -d 0 -p tcp -e 1040 -c 2 -a 0 -i 3 -k RTR 
- -t 7.019603531 -s 1 -d 0 -p tcp -e 1040 -c 2 -a 0 -i 3 -k RTR
h -t 7.019603531 -s 1 -d 0 -p tcp -e 1040 -c 2 -a 0 -i 3 -k RTR
+ -t 7.021014578 -s 3 -d 1 -p tcp -e 40 -c 2 -a 0 -i 1 -k RTR 
- -t 7.021014578 -s 3 -d 1 -p tcp -e 40 -c 2 -a 0 -i 1 -k RTR
h -t 7.021014578 -s 3 -d 1 -p tcp -e 40 -c 2 -a 0 -i 1 -k RTR
r -t 7.021705323 -s 0 -d 0 -p tcp -e 1040 -c 2 -a 0 -i 3 -k AGT
+ -t 7.021705323 -s 0 -d -1 -p ack -e 40 -c 2 -a 0 -i 4 -k AGT 
- -t 7.021705323 -s 0 -d -1 -p ack -e 40 -c 2 -a 0 -i 4 -k AGT
h -t 7.021705323 -s 0 -d -1 -p ack -e 40 -c 2 -a 0 -i 4 -k AGT
+ -t 7.021705323 -s 0 -d 1 -p ack -e 40 -c 2 -a 0 -i 4 -k RTR 
- -t 7.021705323 -s 0 -d 1 -p ack -e 40 -c 2 -a 0 -i 4 -k RTR
h -t 7.021705323 -s 0 -d 1 -p ack -e 40 -c 2 -a 0 -i 4 -k RTR
+ -t 7.023523842 -s 1 -d 3 -p ack -e 40 -c 2 -a 0 -i 4 -k RTR 
- -t 7.023523842 -s 1 -d 3 -p ack -e 40 -c 2 -a 0 -i 4 -k RTR
h -t 7.023523842 -s 1 -d 3 -p ack -e 40 -c 2 -a 0 -i 4 -k RTR
r -t 7.024718049 -s 3 -d 3 -p ack -e 40 -c 2 -a 0 -i 4 -k AGT
+ -t 7.024718049 -s 3 -d -1 -p tcp -e 1040 -c 2 -a 0 -i 5 -k AGT 
- -t 7.024718049 -s 3 -d -1 -p tcp -e 1040 -c 2 -a 0 -i 5 -k AGT
h -t 7.024718049 -s 3 -d -1 -p tcp -e 1040 -c 2 -a 0 -i 5 -k AGT
+ -t 7.024718049 -s 3 -d -1 -p tcp -e 1040 -c 2 -a 0 -i 6 -k AGT 
- -t 7.024718049 -s 3 -d -1 -p tcp -e 1040 -c 2 -a 0 -i 6 -k AGT
h -t 7.024718049 -s 3 -d -1 -p tcp -e 1040 -c 2 -a 0 -i 6 -k AGT
+ -t 7.024718049 -s 3 -d 1 -p tcp -e 1040 -c 2 -a 0 -i 5 -k RTR 
- -t 7.024718049 -s 3 -d 1 -p tcp -e 1040 -c 2 -a 0 -i 5 -k RTR
h -t 7.024718049 -s 3 -d 1 -p tcp -e 1040 -c 2 -a 0 -i 5 -k RTR
+ -t 7.024718049 -s 3 -d 1 -p tcp -e 1040 -c 2 -a 0 -i 6 -k RTR 
- -t 7.024718049 -s 3 -d 1 -p tcp -e 1040 -c 2 -a 0 -i 6 -k RTR
h -t 7.024718049 -s 3 -d 1 -p tcp -e 1040 -c 2 -a 0 -i 6 -k RTR
+ -t 7.026532256 -s 1 -d 0 -p tcp -e 40 -c 2 -a 0 -i 1 -k RTR 
- -t 7.026532256 -s 1 -d 0 -p tcp -e 40 -c 2 -a 0 -i 1 -k RTR
h -t 7.026532256 -s 1 -d 0 -p tcp -e 40 -c 2 -a 0 -i 1 -k RTR
r -t 7.027826776 -s 0 -d 0 -p tcp -e 40 -c 2 -a 0 -i 1 -k AGT
+ -t 7.027826776 -s 0 -d -1 -p ack -e 40 -c 2 -a 0 -i 7 -k AGT 
- -t 7.027826776 -s 0 -d -1 -p ack -e 40 -c 2 -a 0 -i 7 -k AGT
h -t 7.027826776 -s 0 -d -1 -p ack -e 40 -c 2 -a 0 -i 7 -k AGT
+ -t 7.027826776 -s 0 -d 1 -p ack -e 40 -c 2 -a 0 -i 7 -k RTR 
- -t 7.027826776 -s 0 -d 1 -p ack -e 40 -c 2 -a 0 -i 7 -k RTR
h -t 7.027826776 -s 0 -d 1 -p ack -e 40 -c 2 -a 0 -i 7 -k RTR
+ -t 7.028981296 -s 1 -d 3 -p ack -e 40 -c 2 -a 0 -i 7 -k RTR 
- -t 7.028981296 -s 1 -d 3 -p ack -e 40 -c 2 -a 0 -i 7 -k RTR
h -t 7.028981296 -s 1 -d 3 -p ack -e 40 -c 2 -a 0 -i 7 -k RTR
r -t 7.030135500 -s 3 -d 3 -p ack -e 40 -c 2 -a 0 -i 7 -k AGT
+ -t 7.030135500 -s 3 -d -1 -p tcp -e 1040 -c 2 -a 0 -i 8 -k AGT 
- -t 7.030135500 -s 3 -d -1 -p tcp -e 1040 -c 2 -a 0 -i 8 -k AGT
h -t 7.030135500 -s 3 -d -1 -p tcp -e 1040 -c 2 -a 0 -i 8 -k AGT
+ -t 7.030135500 -s 3 -d 1 -p tcp -e 1040 -c 2 -a 0 -i 8 -k RTR 
- -t 7.030135500 -s 3 -d 1 -p tcp -e 1040 -c 2 -a 0 -i 8 -k RTR
h -t 7.030135500 -s 3 -d 1 -p tcp -e 1040 -c 2 -a 0 -i 8 -k RTR
+ -t 7.031976977 -s 1 -d 0 -p tcp -e 1040 -c 2 -a 0 -i 5 -k RTR 
- -t 7.031976977 -s 1 -d 0 -p tcp -e 1040 -c 2 -a 0 -i 5 -k RTR
h -t 7.031976977 -s 1 -d 0 -p tcp -e 1040 -c 2 -a 0 -i 5 -k RTR
+ -t 7.034078581 -s 1 -d 0 -p tcp -e 1040 -c 2 -a 0 -i 6 -k RTR 
- -t 7.034078581 -s 1 -d 0 -p tcp -e 1040 -c 2 -a 0 -i 6 -k RTR
h -t 7.034078581 -s 1 -d 0 -p tcp -e 1040 -c 2 -a 0 -i 6 -k RTR
+ -t 7.036080184 -s 1 -d 0 -p tcp -e 1040 -c 2 -a 0 -i 8 -k RTR 
- -t 7.036080184 -s 1 -d 0 -p tcp -e 1040 -c 2 -a 0 -i 8 -k RTR
h -t 7.036080184 -s 1 -d 0 -p tcp -e 1040 -c 2 -a 0 -i 8 -k RTR
r -t 7.037941977 -s 0 -d 0 -p tcp -e 1040 -c 2 -a 0 -i 5 -k AGT
+ -t 7.037941977 -s 0 -d -1 -p ack -e 40 -c 2 -a 0 -i 9 -k AGT 
- -t 7.037941977 -s 0 -d -1 -p ack -e 40 -c 2 -a 0 -i 9 -k AGT
h -t 7.037941977 -s 0 -d -1 -p ack -e 40 -c 2 -a 0 -i 9 -k AGT
+ -t 7.037941977 -s 0 -d 1 -p ack -e 40 -c 2 -a 0 -i 9 -k RTR 
- -t 7.037941977 -s 0 -d 1 -p ack -e 40 -c 2 -a 0 -i 9 -k RTR
h -t 7.037941977 -s 0 -d 1 -p ack -e 40 -c 2 -a 0 -i 9 -k RTR
r -t 7.039764005 -s 0 -d 0 -p tcp -e 1040 -c 2 -a 0 -i 6 -k AGT
+ -t 7.039764005 -s 0 -d -1 -p ack -e 40 -c 2 -a 0 -i 10 -k AGT 
- -t 7.039764005 -s 0 -d -1 -p ack -e 40 -c 2 -a 0 -i 10 -k AGT
h -t 7.039764005 -s 0 -d -1 -p ack -e 40 -c 2 -a 0 -i 10 -k AGT
+ -t 7.039764005 -s 0 -d 1 -p ack -e 40 -c 2 -a 0 -i 10 -k RTR 
- -t 7.039764005 -s 0 -d 1 -p ack -e 40 -c 2 -a 0 -i 10 -k RTR
h -t 7.039764005 -s 0 -d 1 -p ack -e 40 -c 2 -a 0 -i 10 -k RTR
r -t 7.041806032 -s 0 -d 0 -p tcp -e 1040 -c 2 -a 0 -i 8 -k AGT
+ -t 7.041806032 -s 0 -d -1 -p ack -e 40 -c 2 -a 0 -i 11 -k AGT 
- -t 7.041806032 -s 0 -d -1 -p ack -e 40 -c 2 -a 0 -i 11 -k AGT
h -t 7.041806032 -s 0 -d -1 -p ack -e 40 -c 2 -a 0 -i 11 -k AGT
+ -t 7.041806032 -s 0 -d 1 -p ack -e 40 -c 2 -a 0 -i 11 -k RTR 
- -t 7.041806032 -s 0 -d 1 -p ack -e 40 -c 2 -a 0 -i 11 -k RTR
h -t 7.041806032 -s 0 -d 1 -p ack -e 40 -c 2 -a 0 -i 11 -k RTR
+ -t 7.043160553 -s 1 -d 3 -p ack -e 40 -c 2 -a 0 -i 9 -k RTR 
- -t 7.043160553 -s 1 -d 3 -p ack -e 40 -c 2 -a 0 -i 9 -k RTR
h -t 7.043160553 -s 1 -d 3 -p ack -e 40 -c 2 -a 0 -i 9 -k RTR
r -t 7.044314751 -s 3 -d 3 -p ack -e 40 -c 2 -a 0 -i 9 -k AGT
+ -t 7.045509380 -s 1 -d 3 -p ack -e 40 -c 2 -a 0 -i 10 -k RTR 
- -t 7.045509380 -s 1 -d 3 -p ack -e 40 -c 2 -a 0 -i 10 -k RTR
h -t 7.045509380 -s 1 -d 3 -p ack -e 40 -c 2 -a 0 -i 10 -k RTR
+ -t 7.046684135 -s 1 -d 3 -p ack -e 40 -c 2 -a 0 -i 11 -k RTR 
- -t 7.046684135 -s 1 -d 3 -p ack -e 40 -c 2 -a 0 -i 11 -k RTR
h -t 7.046684135 -s 1 -d 3 -p ack -e 40 -c 2 -a 0 -i 11 -k RTR
r -t 7.047818332 -s 3 -d 3 -p ack -e 40 -c 2 -a 0 -i 10 -k AGT
+ -t 7.047818332 -s 3 -d -1 -p tcp -e 1040 -c 2 -a 0 -i 12 -k AGT 
- -t 7.047818332 -s 3 -d -1 -p tcp -e 1040 -c 2 -a 0 -i 12 -k AGT
h -t 7.047818332 -s 3 -d -1 -p tcp -e 1040 -c 2 -a 0 -i 12 -k AGT
+ -t 7.047818332 -s 3 -d 1 -p tcp -e 1040 -c 2 -a 0 -i 12 -k RTR 
- -t 7.047818332 -s 3 -d 1 -p tcp -e 1040 -c 2 -a 0 -i 12 -k RTR
h -t 7.047818332 -s 3 -d 1 -p tcp -e 1040 -c 2 -a 0 -i 12 -k RTR
+ -t 7.049639800 -s 1 -d 0 -p tcp -e 1040 -c 2 -a 0 -i 12 -k RTR 
- -t 7.049639800 -s 1 -d 0 -p tcp -e 1040 -c 2 -a 0 -i 12 -k RTR
h -t 7.049639800 -s 1 -d 0 -p tcp -e 1040 -c 2 -a 0 -i 12 -k RTR
r -t 7.050973996 -s 3 -d 3 -p ack -e 40 -c 2 -a 0 -i 11 -k AGT
+ -t 7.050973996 -s 3 -d -1 -p tcp -e 1040 -c 2 -a 0 -i 13 -k AGT 
- -t 7.050973996 -s 3 -d -1 -p tcp -e 1040 -c 2 -a 0 -i 13 -k AGT
h -t 7.050973996 -s 3 -d -1 -p tcp -e 1040 -c 2 -a 0 -i 13 -k AGT
+ -t 7.050973996 -s 3 -d -1 -p tcp -e 1040 -c 2 -a 0 -i 14 -k AGT 
- -t 7.050973996 -s 3 -d -1 -p tcp -e 1040 -c 2 -a 0 -i 14 -k AGT
h -t 7.050973996 -s 3 -d -1 -p tcp -e 1040 -c 2 -a 0 -i 14 -k AGT
+ -t 7.050973996 -s 3 -d 1 -p tcp -e 1040 -c 2 -a 0 -i 13 -k RTR 
- -t 7.050973996 -s 3 -d 1 -p tcp -e 1040 -c 2 -a 0 -i 13 -k RTR
h -t 7.050973996 -s 3 -d 1 -p tcp -e 1040 -c 2 -a 0 -i 13 -k RTR
+ -t 7.050973996 -s 3 -d 1 -p tcp -e 1040 -c 2 -a 0 -i 14 -k RTR 
- -t 7.050973996 -s 3 -d 1 -p tcp -e 1040 -c 2 -a 0 -i 14 -k RTR
h -t 7.050973996 -s 3 -d 1 -p tcp -e 1040 -c 2 -a 0 -i 14 -k RTR
+ -t 7.052875463 -s 1 -d 0 -p tcp -e 1040 -c 2 -a 0 -i 13 -k RTR 
- -t 7.052875463 -s 1 -d 0 -p tcp -e 1040 -c 2 -a 0 -i 13 -k RTR
h -t 7.052875463 -s 1 -d 0 -p tcp -e 1040 -c 2 -a 0 -i 13 -k RTR
+ -t 7.054717054 -s 1 -d 0 -p tcp -e 1040 -c 2 -a 0 -i 14 -k RTR 
- -t 7.054717054 -s 1 -d 0 -p tcp -e 1040 -c 2 -a 0 -i 14 -k RTR
h -t 7.054717054 -s 1 -d 0 -p tcp -e 1040 -c 2 -a 0 -i 14 -k RTR
r -t 7.056738849 -s 0 -d 0 -p tcp -e 1040 -c 2 -a 0 -i 12 -k AGT
+ -t 7.056738849 -s 0 -d -1 -p ack -e 40 -c 2 -a 0 -i 15 -k AGT 
- -t 7.056738849 -s 0 -d -1 -p ack -e 40 -c 2 -a 0 -i 15 -k AGT
h -t 7.056738849 -s 0 -d -1 -p ack -e 40 -c 2 -a 0 -i 15 -k AGT
+ -t 7.056738849 -s 0 -d 1 -p ack -e 40 -c 2 -a 0 -i 15 -k RTR 
- -t 7.056738849 -s 0 -d 1 -p ack -e 40 -c 2 -a 0 -i 15 -k RTR
h -t 7.056738849 -s 0 -d 1 -p ack -e 40 -c 2 -a 0 -i 15 -k RTR
r -t 7.058680878 -s 0 -d 0 -p tcp -e 1040 -c 2 -a 0 -i 13 -k AGT
+ -t 7.058680878 -s 0 -d -1 -p ack -e 40 -c 2 -a 0 -i 16 -k AGT 
- -t 7.058680878 -s 0 -d -1 -p ack -e 40 -c 2 -a 0 -i 16 -k AGT
h -t 7.058680878 -s 0 -d -1 -p ack -e 40 -c 2 -a 0 -i 16 -k AGT
+ -t 7.058680878 -s 0 -d 1 -p ack -e 40 -c 2 -a 0 -i 16 -k RTR 
- -t 7.058680878 -s 0 -d 1 -p ack -e 40 -c 2 -a 0 -i 16 -k RTR
h -t 7.058680878 -s 0 -d 1 -p ack -e 40 -c 2 -a 0 -i 16 -k RTR
+ -t 7.059895400 -s 1 -d 3 -p ack -e 40 -c 2 -a 0 -i 15 -k RTR 
- -t 7.059895400 -s 1 -d 3 -p ack -e 40 -c 2 -a 0 -i 15 -k RTR
h -t 7.059895400 -s 1 -d 3 -p ack -e 40 -c 2 -a 0 -i 15 -k RTR
+ -t 7.061030156 -s 1 -d 3 -p ack -e 40 -c 2 -a 0 -i 16 -k RTR 
- -t 7.061030156 -s 1 -d 3 -p ack -e 40 -c 2 -a 0 -i 16 -k RTR
h -t 7.061030156 -s 1 -d 3 -p ack -e 40 -c 2 -a 0 -i 16 -k RTR
r -t 7.062991951 -s 0 -d 0 -p tcp -e 1040 -c 2 -a 0 -i 14 -k AGT
+ -t 7.062991951 -s 0 -d -1 -p ack -e 40 -c 2 -a 0 -i 17 -k AGT 
- -t 7.062991951 -s 0 -d -1 -p ack -e 40 -c 2 -a 0 -i 17 -k AGT
h -t 7.062991951 -s 0 -d -1 -p ack -e 40 -c 2 -a 0 -i 17 -k AGT
+ -t 7.062991951 -s 0 -d 1 -p ack -e 40 -c 2 -a 0 -i 17 -k RTR 
- -t 7.062991951 -s 0 -d 1 -p ack -e 40 -c 2 -a 0 -i 17 -k RTR
h -t 7.062991951 -s 0 -d 1 -p ack -e 40 -c 2 -a 0 -i 17 -k RTR
r -t 7.064206375 -s 3 -d 3 -p ack -e 40 -c 2 -a 0 -i 15 -k AGT
+ -t 7.064206375 -s 3 -d -1 -p tcp -e 1040 -c 2 -a 0 -i 18 -k AGT 
- -t 7.064206375 -s 3 -d -1 -p tcp -e 1040 -c 2 -a 0 -i 18 -k AGT
h -t 7.064206375 -s 3 -d -1 -p tcp -e 1040 -c 2 -a 0 -i 18 -k AGT
+ -t 7.064206375 -s 3 -d 1 -p tcp -e 1040 -c 2 -a 0 -i 18 -k RTR 
- -t 7.064206375 -s 3 -d 1 -p tcp -e 1040 -c 2 -a 0 -i 18 -k RTR
h -t 7.064206375 -s 3 -d 1 -p tcp -e 1040 -c 2 -a 0 -i 18 -k RTR
r -t 7.065400687 -s 3 -d 3 -p ack -e 40 -c 2 -a 0 -i 16 -k AGT
+ -t 7.065400687 -s 3 -d -1 -p tcp -e 1040 -c 2 -a 0 -i 19 -k AGT 
- -t 7.065400687 -s 3 -d -1 -p tcp -e 1040 -c 2 -a 0 -i 19 -k AGT
h -t 7.065400687 -s 3 -d -1 -p tcp -e 1040 -c 2 -a 0 -i 19 -k AGT
+ -t 7.065400687 -s 3 -d 1 -p tcp -e 1040 -c 2 -a 0 -i 19 -k RTR 
- -t 7.065400687 -s 3 -d 1 -p tcp -e 1040 -c 2 -a 0 -i 19 -k RTR
h -t 7.065400687 -s 3 -d 1 -p tcp -e 1040 -c 2 -a 0 -i 19 -k RTR
+ -t 7.067539321 -s 1 -d 3 -p ack -e 40 -c 2 -a 0 -i 17 -k RTR 
- -t 7.067539321 -s 1 -d 3 -p ack -e 40 -c 2 -a 0 -i 17 -k RTR
h -t 7.067539321 -s 1 -d 3 -p ack -e 40 -c 2 -a 0 -i 17 -k RTR
r -t 7.068973507 -s 3 -d 3 -p ack -e 40 -c 2 -a 0 -i 17 -k AGT
+ -t 7.068973507 -s 3 -d -1 -p tcp -e 1040 -c 2 -a 0 -i 20 -k AGT 
- -t 7.068973507 -s 3 -d -1 -p tcp -e 1040 -c 2 -a 0 -i 20 -k AGT
h -t 7.068973507 -s 3 -d -1 -p tcp -e 1040 -c 2 -a 0 -i 20 -k AGT
+ -t 7.068973507 -s 3 -d -1 -p tcp -e 1040 -c 2 -a 0 -i 21 -k AGT 
- -t 7.068973507 -s 3 -d -1 -p tcp -e 1040 -c 2 -a 0 -i 21 -k AGT
h -t 7.068973507 -s 3 -d -1 -p tcp -e 1040 -c 2 -a 0 -i 21 -k AGT
+ -t 7.068973507 -s 3 -d 1 -p tcp -e 1040 -c 2 -a 0 -i 20 -k RTR 
- -t 7.068973507 -s 3 -d 1 -p tcp -e 1040 -c 2 -a 0 -i 20 -k RTR
h -t 7.068973507 -s 3 -d 1 -p tcp -e 1040 -c 2 -a 0 -i 20 -k RTR
+ -t 7.068973507 -s 3 -d 1 -p tcp -e 1040 -c 2 -a 0 -i 21 -k RTR 
- -t 7.068973507 -s 3 -d 1 -p tcp -e 1040 -c 2 -a 0 -i 21 -k RTR
h -t 7.068973507 -s 3 -d 1 -p tcp -e 1040 -c 2 -a 0 -i 21 -k RTR
+ -t 7.072394966 -s 1 -d 0 -p tcp -e 1040 -c 2 -a 0 -i 18 -k RTR 
- -t 7.072394966 -s 1 -d 0 -p tcp -e 1040 -c 2 -a 0 -i 18 -k RTR
h -t 7.072394966 -s 1 -d 0 -p tcp -e 1040 -c 2 -a 0 -i 18 -k RTR
r -t 7.074276761 -s 0 -d 0 -p tcp -e 1040 -c 2 -a 0 -i 18 -k AGT
+ -t 7.074276761 -s 0 -d -1 -p ack -e 40 -c 2 -a 0 -i 22 -k AGT 
- -t 7.074276761 -s 0 -d -1 -p ack -e 40 -c 2 -a 0 -i 22 -k AGT
h -t 7.074276761 -s 0 -d -1 -p ack -e 40 -c 2 -a 0 -i 22 -k AGT
+ -t 7.074276761 -s 0 -d 1 -p ack -e 40 -c 2 -a 0 -i 22 -k RTR 
- -t 7.074276761 -s 0 -d 1 -p ack -e 40 -c 2 -a 0 -i 22 -k RTR
h -t 7.074276761 -s 0 -d 1 -p ack -e 40 -c 2 -a 0 -i 22 -k RTR
+ -t 7.075491284 -s 1 -d 3 -p ack -e 40 -c 2 -a 0 -i 22 -k RTR 
- -t 7.075491284 -s 1 -d 3 -p ack -e 40 -c 2 -a 0 -i 22 -k RTR
h -t 7.075491284 -s 1 -d 3 -p ack -e 40 -c 2 -a 0 -i 22 -k RTR
+ -t 7.077452862 -s 1 -d 0 -p tcp -e 1040 -c 2 -a 0 -i 19 -k RTR 
- -t 7.077452862 -s 1 -d 0 -p tcp -e 1040 -c 2 -a 0 -i 19 -k RTR
h -t 7.077452862 -s 1 -d 0 -p tcp -e 1040 -c 2 -a 0 -i 19 -k RTR
r -t 7.078887044 -s 3 -d 3 -p ack -e 40 -c 2 -a 0 -i 22 -k AGT
+ -t 7.078887044 -s 3 -d -1 -p tcp -e 1040 -c 2 -a 0 -i 23 -k AGT 
- -t 7.078887044 -s 3 -d -1 -p tcp -e 1040 -c 2 -a 0 -i 23 -k AGT
h -t 7.078887044 -s 3 -d -1 -p tcp -e 1040 -c 2 -a 0 -i 23 -k AGT
+ -t 7.078887044 -s 3 -d 1 -p tcp -e 1040 -c 2 -a 0 -i 23 -k RTR 
- -t 7.078887044 -s 3 -d 1 -p tcp -e 1040 -c 2 -a 0 -i 23 -k RTR
h -t 7.078887044 -s 3 -d 1 -p tcp -e 1040 -c 2 -a 0 -i 23 -k RTR
+ -t 7.080928499 -s 1 -d 0 -p tcp -e 1040 -c 2 -a 0 -i 20 -k RTR 
- -t 7.080928499 -s 1 -d 0 -p tcp -e 1040 -c 2 -a 0 -i 20 -k RTR
h -t 7.080928499 -s 1 -d 0 -p tcp -e 1040 -c 2 -a 0 -i 20 -k RTR
r -t 7.082850295 -s 0 -d 0 -p tcp -e 1040 -c 2 -a 0 -i 19 -k AGT
+ -t 7.082850295 -s 0 -d -1 -p ack -e 40 -c 2 -a 0 -i 24 -k AGT 
- -t 7.082850295 -s 0 -d -1 -p ack -e 40 -c 2 -a 0 -i 24 -k AGT
h -t 7.082850295 -s 0 -d -1 -p ack -e 40 -c 2 -a 0 -i 24 -k AGT
+ -t 7.082850295 -s 0 -d 1 -p ack -e 40 -c 2 -a 0 -i 24 -k RTR 
- -t 7.082850295 -s 0 -d 1 -p ack -e 40 -c 2 -a 0 -i 24 -k RTR
h -t 7.082850295 -s 0 -d 1 -p ack -e 40 -c 2 -a 0 -i 24 -k RTR
+ -t 7.085475633 -s 1 -d 0 -p tcp -e 1040 -c 2 -a 0 -i 21 -k RTR 
- -t 7.085475633 -s 1 -d 0 -p tcp -e 1040 -c 2 -a 0 -i 21 -k RTR
h -t 7.085475633 -s 1 -d 0 -p tcp -e 1040 -c 2 -a 0 -i 21 -k RTR
r -t 7.087437430 -s 0 -d 0 -p tcp -e 1040 -c 2 -a 0 -i 20 -k AGT
+ -t 7.087437430 -s 0 -d -1 -p ack -e 40 -c 2 -a 0 -i 25 -k AGT 
- -t 7.087437430 -s 0 -d -1 -p ack -e 40 -c 2 -a 0 -i 25 -k AGT
h -t 7.087437430 -s 0 -d -1 -p ack -e 40 -c 2 -a 0 -i 25 -k AGT
+ -t 7.087437430 -s 0 -d 1 -p ack -e 40 -c 2 -a 0 -i 25 -k RTR 
- -t 7.087437430 -s 0 -d 1 -p ack -e 40 -c 2 -a 0 -i 25 -k RTR
h -t 7.087437430 -s 0 -d 1 -p ack -e 40 -c 2 -a 0 -i 25 -k RTR
r -t 7.090345461 -s 0 -d 0 -p tcp -e 1040 -c 2 -a 0 -i 21 -k AGT
+ -t 7.090345461 -s 0 -d -1 -p ack -e 40 -c 2 -a 0 -i 26 -k AGT 
- -t 7.090345461 -s 0 -d -1 -p ack -e 40 -c 2 -a 0 -i 26 -k AGT
h -t 7.090345461 -s 0 -d -1 -p ack -e 40 -c 2 -a 0 -i 26 -k AGT
+ -t 7.090345461 -s 0 -d 1 -p ack -e 40 -c 2 -a 0 -i 26 -k RTR 
- -t 7.090345461 -s 0 -d 1 -p ack -e 40 -c 2 -a 0 -i 26 -k RTR
h -t 7.090345461 -s 0 -d 1 -p ack -e 40 -c 2 -a 0 -i 26 -k RTR
+ -t 7.092566795 -s 1 -d 0 -p tcp -e 1040 -c 2 -a 0 -i 23 -k RTR 
- -t 7.092566795 -s 1 -d 0 -p tcp -e 1040 -c 2 -a 0 -i 23 -k RTR
h -t 7.092566795 -s 1 -d 0 -p tcp -e 1040 -c 2 -a 0 -i 23 -k RTR
r -t 7.094408592 -s 0 -d 0 -p tcp -e 1040 -c 2 -a 0 -i 23 -k AGT
+ -t 7.094408592 -s 0 -d -1 -p ack -e 40 -c 2 -a 0 -i 27 -k AGT 
- -t 7.094408592 -s 0 -d -1 -p ack -e 40 -c 2 -a 0 -i 27 -k AGT
h -t 7.094408592 -s 0 -d -1 -p ack -e 40 -c 2 -a 0 -i 27 -k AGT
+ -t 7.094408592 -s 0 -d 1 -p ack -e 40 -c 2 -a 0 -i 27 -k RTR 
- -t 7.094408592 -s 0 -d 1 -p ack -e 40 -c 2 -a 0 -i 27 -k RTR
h -t 7.094408592 -s 0 -d 1 -p ack -e 40 -c 2 -a 0 -i 27 -k RTR
+ -t 7.096723116 -s 1 -d 3 -p ack -e 40 -c 2 -a 0 -i 24 -k RTR 
- -t 7.096723116 -s 1 -d 3 -p ack -e 40 -c 2 -a 0 -i 24 -k RTR
h -t 7.096723116 -s 1 -d 3 -p ack -e 40 -c 2 -a 0 -i 24 -k RTR
+ -t 7.097817876 -s 1 -d 3 -p ack -e 40 -c 2 -a 0 -i 25 -k RTR 
- -t 7.097817876 -s 1 -d 3 -p ack -e 40 -c 2 -a 0 -i 25 -k RTR
h -t 7.097817876 -s 1 -d 3 -p ack -e 40 -c 2 -a 0 -i 25 -k RTR
+ -t 7.099052636 -s 1 -d 3 -p ack -e 40 -c 2 -a 0 -i 26 -k RTR 
- -t 7.099052636 -s 1 -d 3 -p ack -e 40 -c 2 -a 0 -i 26 -k RTR
h -t 7.099052636 -s 1 -d 3 -p ack -e 40 -c 2 -a 0 -i 26 -k RTR
r -t 7.100226809 -s 3 -d 3 -p ack -e 40 -c 2 -a 0 -i 24 -k AGT
+ -t 7.100226809 -s 3 -d -1 -p tcp -e 1040 -c 2 -a 0 -i 28 -k AGT 
- -t 7.100226809 -s 3 -d -1 -p tcp -e 1040 -c 2 -a 0 -i 28 -k AGT
h -t 7.100226809 -s 3 -d -1 -p tcp -e 1040 -c 2 -a 0 -i 28 -k AGT
+ -t 7.100226809 -s 3 -d 1 -p tcp -e 1040 -c 2 -a 0 -i 28 -k RTR 
- -t 7.100226809 -s 3 -d 1 -p tcp -e 1040 -c 2 -a 0 -i 28 -k RTR
h -t 7.100226809 -s 3 -d 1 -p tcp -e 1040 -c 2 -a 0 -i 28 -k RTR
+ -t 7.103072253 -s 1 -d 0 -p tcp -e 1040 -c 2 -a 0 -i 28 -k RTR 
- -t 7.103072253 -s 1 -d 0 -p tcp -e 1040 -c 2 -a 0 -i 28 -k RTR
h -t 7.103072253 -s 1 -d 0 -p tcp -e 1040 -c 2 -a 0 -i 28 -k RTR
r -t 7.104306424 -s 3 -d 3 -p ack -e 40 -c 2 -a 0 -i 25 -k AGT
+ -t 7.104306424 -s 3 -d -1 -p tcp -e 1040 -c 2 -a 0 -i 29 -k AGT 
- -t 7.104306424 -s 3 -d -1 -p tcp -e 1040 -c 2 -a 0 -i 29 -k AGT
h -t 7.104306424 -s 3 -d -1 -p tcp -e 1040 -c 2 -a 0 -i 29 -k AGT
+ -t 7.104306424 -s 3 -d 1 -p tcp -e 1040 -c 2 -a 0 -i 29 -k RTR 
- -t 7.104306424 -s 3 -d 1 -p tcp -e 1040 -c 2 -a 0 -i 29 -k RTR
h -t 7.104306424 -s 3 -d 1 -p tcp -e 1040 -c 2 -a 0 -i 29 -k RTR
r -t 7.105420712 -s 3 -d 3 -p ack -e 40 -c 2 -a 0 -i 26 -k AGT
+ -t 7.105420712 -s 3 -d -1 -p tcp -e 1040 -c 2 -a 0 -i 30 -k AGT 
- -t 7.105420712 -s 3 -d -1 -p tcp -e 1040 -c 2 -a 0 -i 30 -k AGT
h -t 7.105420712 -s 3 -d -1 -p tcp -e 1040 -c 2 -a 0 -i 30 -k AGT
+ -t 7.105420712 -s 3 -d 1 -p tcp -e 1040 -c 2 -a 0 -i 30 -k RTR 
- -t 7.105420712 -s 3 -d 1 -p tcp -e 1040 -c 2 -a 0 -i 30 -k RTR
h -t 7.105420712 -s 3 -d 1 -p tcp -e 1040 -c 2 -a 0 -i 30 -k RTR
+ -t 7.107262154 -s 1 -d 0 -p tcp -e 1040 -c 2 -a 0 -i 29 -k RTR 
- -t 7.107262154 -s 1 -d 0 -p tcp -e 1040 -c 2 -a 0 -i 29 -k RTR
h -t 7.107262154 -s 1 -d 0 -p tcp -e 1040 -c 2 -a 0 -i 29 -k RTR
r -t 7.110030424 -s 0 -d 0 -p tcp -e 1040 -c 2 -a 0 -i 28 -k AGT
+ -t 7.110030424 -s 0 -d -1 -p ack -e 40 -c 2 -a 0 -i 31 -k AGT 
- -t 7.110030424 -s 0 -d -1 -p ack -e 40 -c 2 -a 0 -i 31 -k AGT
h -t 7.110030424 -s 0 -d -1 -p ack -e 40 -c 2 -a 0 -i 31 -k AGT
+ -t 7.110030424 -s 0 -d 1 -p ack -e 40 -c 2 -a 0 -i 31 -k RTR 
- -t 7.110030424 -s 0 -d 1 -p ack -e 40 -c 2 -a 0 -i 31 -k RTR
h -t 7.110030424 -s 0 -d 1 -p ack -e 40 -c 2 -a 0 -i 31 -k RTR
r -t 7.113338457 -s 0 -d 0 -p tcp -e 1040 -c 2 -a 0 -i 29 -k AGT
+ -t 7.113338457 -s 0 -d -1 -p ack -e 40 -c 2 -a 0 -i 32 -k AGT 
- -t 7.113338457 -s 0 -d -1 -p ack -e 40 -c 2 -a 0 -i 32 -k AGT
h -t 7.113338457 -s 0 -d -1 -p ack -e 40 -c 2 -a 0 -i 32 -k AGT
+ -t 7.113338457 -s 0 -d 1 -p ack -e 40 -c 2 -a 0 -i 32 -k RTR 
- -t 7.113338457 -s 0 -d 1 -p ack -e 40 -c 2 -a 0 -i 32 -k RTR
h -t 7.113338457 -s 0 -d 1 -p ack -e 40 -c 2 -a 0 -i 32 -k RTR
+ -t 7.116499776 -s 1 -d 0 -p tcp -e 1040 -c 2 -a 0 -i 30 -k RTR 
- -t 7.116499776 -s 1 -d 0 -p tcp -e 1040 -c 2 -a 0 -i 30 -k RTR
h -t 7.116499776 -s 1 -d 0 -p tcp -e 1040 -c 2 -a 0 -i 30 -k RTR
r -t 7.118341575 -s 0 -d 0 -p tcp -e 1040 -c 2 -a 0 -i 30 -k AGT
+ -t 7.118341575 -s 0 -d -1 -p ack -e 40 -c 2 -a 0 -i 33 -k AGT 
- -t 7.118341575 -s 0 -d -1 -p ack -e 40 -c 2 -a 0 -i 33 -k AGT
h -t 7.118341575 -s 0 -d -1 -p ack -e 40 -c 2 -a 0 -i 33 -k AGT
+ -t 7.118341575 -s 0 -d 1 -p ack -e 40 -c 2 -a 0 -i 33 -k RTR 
- -t 7.118341575 -s 0 -d 1 -p ack -e 40 -c 2 -a 0 -i 33 -k RTR
h -t 7.118341575 -s 0 -d 1 -p ack -e 40 -c 2 -a 0 -i 33 -k RTR
+ -t 7.120436101 -s 1 -d 3 -p ack -e 40 -c 2 -a 0 -i 27 -k RTR 
- -t 7.120436101 -s 1 -d 3 -p ack -e 40 -c 2 -a 0 -i 27 -k RTR
h -t 7.120436101 -s 1 -d 3 -p ack -e 40 -c 2 -a 0 -i 27 -k RTR
r -t 7.123016735 -s 3 -d 3 -p ack -e 40 -c 2 -a 0 -i 27 -k AGT
+ -t 7.123016735 -s 3 -d -1 -p tcp -e 1040 -c 2 -a 0 -i 34 -k AGT 
- -t 7.123016735 -s 3 -d -1 -p tcp -e 1040 -c 2 -a 0 -i 34 -k AGT
h -t 7.123016735 -s 3 -d -1 -p tcp -e 1040 -c 2 -a 0 -i 34 -k AGT
+ -t 7.123016735 -s 3 -d -1 -p tcp -e 1040 -c 2 -a 0 -i 35 -k AGT 
- -t 7.123016735 -s 3 -d -1 -p tcp -e 1040 -c 2 -a 0 -i 35 -k AGT
h -t 7.123016735 -s 3 -d -1 -p tcp -e 1040 -c 2 -a 0 -i 35 -k AGT
+ -t 7.123016735 -s 3 -d 1 -p tcp -e 1040 -c 2 -a 0 -i 34 -k RTR 
- -t 7.123016735 -s 3 -d 1 -p tcp -e 1040 -c 2 -a 0 -i 34 -k RTR
h -t 7.123016735 -s 3 -d 1 -p tcp -e 1040 -c 2 -a 0 -i 34 -k RTR
+ -t 7.123016735 -s 3 -d 1 -p tcp -e 1040 -c 2 -a 0 -i 35 -k RTR 
- -t 7.123016735 -s 3 -d 1 -p tcp -e 1040 -c 2 -a 0 -i 35 -k RTR
h -t 7.123016735 -s 3 -d 1 -p tcp -e 1040 -c 2 -a 0 -i 35 -k RTR
+ -t 7.125218170 -s 1 -d 0 -p tcp -e 1040 -c 2 -a 0 -i 34 -k RTR 
- -t 7.125218170 -s 1 -d 0 -p tcp -e 1040 -c 2 -a 0 -i 34 -k RTR
h -t 7.125218170 -s 1 -d 0 -p tcp -e 1040 -c 2 -a 0 -i 34 -k RTR
r -t 7.127159969 -s 0 -d 0 -p tcp -e 1040 -c 2 -a 0 -i 34 -k AGT
+ -t 7.127159969 -s 0 -d -1 -p ack -e 40 -c 2 -a 0 -i 36 -k AGT 
- -t 7.127159969 -s 0 -d -1 -p ack -e 40 -c 2 -a 0 -i 36 -k AGT
h -t 7.127159969 -s 0 -d -1 -p ack -e 40 -c 2 -a 0 -i 36 -k AGT
+ -t 7.127159969 -s 0 -d 1 -p ack -e 40 -c 2 -a 0 -i 36 -k RTR 
- -t 7.127159969 -s 0 -d 1 -p ack -e 40 -c 2 -a 0 -i 36 -k RTR
h -t 7.127159969 -s 0 -d 1 -p ack -e 40 -c 2 -a 0 -i 36 -k RTR
+ -t 7.128634495 -s 1 -d 3 -p ack -e 40 -c 2 -a 0 -i 31 -k RTR 
- -t 7.128634495 -s 1 -d 3 -p ack -e 40 -c 2 -a 0 -i 31 -k RTR
h -t 7.128634495 -s 1 -d 3 -p ack -e 40 -c 2 -a 0 -i 31 -k RTR
+ -t 7.129909258 -s 1 -d 3 -p ack -e 40 -c 2 -a 0 -i 32 -k RTR 
- -t 7.129909258 -s 1 -d 3 -p ack -e 40 -c 2 -a 0 -i 32 -k RTR
h -t 7.129909258 -s 1 -d 3 -p ack -e 40 -c 2 -a 0 -i 32 -k RTR
+ -t 7.131144021 -s 1 -d 3 -p ack -e 40 -c 2 -a 0 -i 33 -k RTR 
- -t 7.131144021 -s 1 -d 3 -p ack -e 40 -c 2 -a 0 -i 33 -k RTR
h -t 7.131144021 -s 1 -d 3 -p ack -e 40 -c 2 -a 0 -i 33 -k RTR
r -t 7.132458179 -s 3 -d 3 -p ack -e 40 -c 2 -a 0 -i 31 -k AGT
+ -t 7.132458179 -s 3 -d -1 -p tcp -e 1040 -c 2 -a 0 -i 37 -k AGT 
- -t 7.132458179 -s 3 -d -1 -p tcp -e 1040 -c 2 -a 0 -i 37 -k AGT
h -t 7.132458179 -s 3 -d -1 -p tcp -e 1040 -c 2 -a 0 -i 37 -k AGT
+ -t 7.132458179 -s 3 -d 1 -p tcp -e 1040 -c 2 -a 0 -i 37 -k RTR 
- -t 7.132458179 -s 3 -d 1 -p tcp -e 1040 -c 2 -a 0 -i 37 -k RTR
h -t 7.132458179 -s 3 -d 1 -p tcp -e 1040 -c 2 -a 0 -i 37 -k RTR
r -t 7.133552450 -s 3 -d 3 -p ack -e 40 -c 2 -a 0 -i 32 -k AGT
+ -t 7.133552450 -s 3 -d -1 -p tcp -e 1040 -c 2 -a 0 -i 38 -k AGT 
- -t 7.133552450 -s 3 -d -1 -p tcp -e 1040 -c 2 -a 0 -i 38 -k AGT
h -t 7.133552450 -s 3 -d -1 -p tcp -e 1040 -c 2 -a 0 -i 38 -k AGT
+ -t 7.133552450 -s 3 -d 1 -p tcp -e 1040 -c 2 -a 0 -i 38 -k RTR 
- -t 7.133552450 -s 3 -d 1 -p tcp -e 1040 -c 2 -a 0 -i 38 -k RTR
h -t 7.133552450 -s 3 -d 1 -p tcp -e 1040 -c 2 -a 0 -i 38 -k RTR
+ -t 7.135413880 -s 1 -d 0 -p tcp -e 1040 -c 2 -a 0 -i 35 -k RTR 
- -t 7.135413880 -s 1 -d 0 -p tcp -e 1040 -c 2 -a 0 -i 35 -k RTR
h -t 7.135413880 -s 1 -d 0 -p tcp -e 1040 -c 2 -a 0 -i 35 -k RTR
+ -t 7.137235422 -s 1 -d 0 -p tcp -e 1040 -c 2 -a 0 -i 37 -k RTR 
- -t 7.137235422 -s 1 -d 0 -p tcp -e 1040 -c 2 -a 0 -i 37 -k RTR
h -t 7.137235422 -s 1 -d 0 -p tcp -e 1040 -c 2 -a 0 -i 37 -k RTR
r -t 7.138409578 -s 3 -d 3 -p ack -e 40 -c 2 -a 0 -i 33 -k AGT
+ -t 7.138409578 -s 3 -d -1 -p tcp -e 1040 -c 2 -a 0 -i 39 -k AGT 
- -t 7.138409578 -s 3 -d -1 -p tcp -e 1040 -c 2 -a 0 -i 39 -k AGT
h -t 7.138409578 -s 3 -d -1 -p tcp -e 1040 -c 2 -a 0 -i 39 -k AGT
+ -t 7.138409578 -s 3 -d 1 -p tcp -e 1040 -c 2 -a 0 -i 39 -k RTR 
- -t 7.138409578 -s 3 -d 1 -p tcp -e 1040 -c 2 -a 0 -i 39 -k RTR
h -t 7.138409578 -s 3 -d 1 -p tcp -e 1040 -c 2 -a 0 -i 39 -k RTR
+ -t 7.139888453 -s 1 -d 3 -p ack -e 40 -c 2 -a 0 -i 36 -k RTR 
- -t 7.139888453 -s 1 -d 3 -p ack -e 40 -c 2 -a 0 -i 36 -k RTR
h -t 7.139888453 -s 1 -d 3 -p ack -e 40 -c 2 -a 0 -i 36 -k RTR
r -t 7.141890253 -s 0 -d 0 -p tcp -e 1040 -c 2 -a 0 -i 35 -k AGT
+ -t 7.141890253 -s 0 -d -1 -p ack -e 40 -c 2 -a 0 -i 40 -k AGT 
- -t 7.141890253 -s 0 -d -1 -p ack -e 40 -c 2 -a 0 -i 40 -k AGT
h -t 7.141890253 -s 0 -d -1 -p ack -e 40 -c 2 -a 0 -i 40 -k AGT
+ -t 7.141890253 -s 0 -d 1 -p ack -e 40 -c 2 -a 0 -i 40 -k RTR 
- -t 7.141890253 -s 0 -d 1 -p ack -e 40 -c 2 -a 0 -i 40 -k RTR
h -t 7.141890253 -s 0 -d 1 -p ack -e 40 -c 2 -a 0 -i 40 -k RTR
+ -t 7.143384781 -s 1 -d 3 -p ack -e 40 -c 2 -a 0 -i 40 -k RTR 
- -t 7.143384781 -s 1 -d 3 -p ack -e 40 -c 2 -a 0 -i 40 -k RTR
h -t 7.143384781 -s 1 -d 3 -p ack -e 40 -c 2 -a 0 -i 40 -k RTR
+ -t 7.145332317 -s 1 -d 0 -p tcp -e 1040 -c 2 -a 0 -i 38 -k RTR 
- -t 7.145332317 -s 1 -d 0 -p tcp -e 1040 -c 2 -a 0 -i 38 -k RTR
h -t 7.145332317 -s 1 -d 0 -p tcp -e 1040 -c 2 -a 0 -i 38 -k RTR
r -t 7.147214118 -s 0 -d 0 -p tcp -e 1040 -c 2 -a 0 -i 37 -k AGT
+ -t 7.147214118 -s 0 -d -1 -p ack -e 40 -c 2 -a 0 -i 41 -k AGT 
- -t 7.147214118 -s 0 -d -1 -p ack -e 40 -c 2 -a 0 -i 41 -k AGT
h -t 7.147214118 -s 0 -d -1 -p ack -e 40 -c 2 -a 0 -i 41 -k AGT
+ -t 7.147214118 -s 0 -d 1 -p ack -e 40 -c 2 -a 0 -i 41 -k RTR 
- -t 7.147214118 -s 0 -d 1 -p ack -e 40 -c 2 -a 0 -i 41 -k RTR
h -t 7.147214118 -s 0 -d 1 -p ack -e 40 -c 2 -a 0 -i 41 -k RTR
+ -t 7.148408646 -s 1 -d 3 -p ack -e 40 -c 2 -a 0 -i 41 -k RTR 
- -t 7.148408646 -s 1 -d 3 -p ack -e 40 -c 2 -a 0 -i 41 -k RTR
h -t 7.148408646 -s 1 -d 3 -p ack -e 40 -c 2 -a 0 -i 41 -k RTR
r -t 7.149542796 -s 3 -d 3 -p ack -e 40 -c 2 -a 0 -i 36 -k AGT
+ -t 7.149542796 -s 3 -d -1 -p tcp -e 1040 -c 2 -a 0 -i 42 -k AGT 
- -t 7.149542796 -s 3 -d -1 -p tcp -e 1040 -c 2 -a 0 -i 42 -k AGT
h -t 7.149542796 -s 3 -d -1 -p tcp -e 1040 -c 2 -a 0 -i 42 -k AGT
+ -t 7.149542796 -s 3 -d 1 -p tcp -e 1040 -c 2 -a 0 -i 42 -k RTR 
- -t 7.149542796 -s 3 -d 1 -p tcp -e 1040 -c 2 -a 0 -i 42 -k RTR
h -t 7.149542796 -s 3 -d 1 -p tcp -e 1040 -c 2 -a 0 -i 42 -k RTR
+ -t 7.151844219 -s 1 -d 0 -p tcp -e 1040 -c 2 -a 0 -i 39 -k RTR 
- -t 7.151844219 -s 1 -d 0 -p tcp -e 1040 -c 2 -a 0 -i 39 -k RTR
h -t 7.151844219 -s 1 -d 0 -p tcp -e 1040 -c 2 -a 0 -i 39 -k RTR
r -t 7.152998368 -s 3 -d 3 -p ack -e 40 -c 2 -a 0 -i 40 -k AGT
+ -t 7.152998368 -s 3 -d -1 -p tcp -e 1040 -c 2 -a 0 -i 43 -k AGT 
- -t 7.152998368 -s 3 -d -1 -p tcp -e 1040 -c 2 -a 0 -i 43 -k AGT
h -t 7.152998368 -s 3 -d -1 -p tcp -e 1040 -c 2 -a 0 -i 43 -k AGT
+ -t 7.152998368 -s 3 -d -1 -p tcp -e 1040 -c 2 -a 0 -i 44 -k AGT 